<?xml version="1.0" encoding="UTF-8"?>

<!-- generated on 2025-08-10 10:43:35 by Eclipse SUMO sumo Version v1_20_0+0085-e155ab8699b
<configuration xmlns:xsi="http://www.w3.org/2001/XMLSchema-instance" xsi:noNamespaceSchemaLocation="http://sumo.dlr.de/xsd/sumoConfiguration.xsd">

    <input>
        <net-file value="../networks/roundabout.net.xml"/>
        <route-files value="../networks/routes1.rou.xml"/>
    </input>

    <output>
        <output-prefix value="124-"/>
        <battery-output.precision value="4"/>
        <tripinfo-output value="../networks/output_data/output_default/tripinfo/tripinfo-output.xml"/>
        <collision-output value="../networks/output_data/output_default/collision/collision-output.xml"/>
    </output>

    <time>
        <begin value="0"/>
        <step-length value="0.4"/>
    </time>

    <processing>
        <step-method.ballistic value="true"/>
        <lateral-resolution value="3.2"/>
        <collision.action value="warn"/>
        <collision.check-junctions value="True"/>
        <collision.mingap-factor value="0"/>
        <time-to-teleport value="-1"/>
        <random-depart-offset value="5"/>
    </processing>

    <report>
        <no-warnings value="True"/>
        <no-step-log value="True"/>
    </report>

    <emissions>
        <device.emissions.probability value="1"/>
    </emissions>

    <battery>
        <device.battery.probability value="1"/>
    </battery>

    <traci_server>
        <remote-port value="41891"/>
    </traci_server>

    <gui_only>
        <quit-on-end value="True"/>
        <start value="True"/>
        <delay value="0"/>
    </gui_only>

</configuration>
-->

<tripinfos xmlns:xsi="http://www.w3.org/2001/XMLSchema-instance" xsi:noNamespaceSchemaLocation="http://sumo.dlr.de/xsd/tripinfo_file.xsd">
    <tripinfo id="vehicle_65" depart="0.40" departLane="road2_0" departPos="4.10" departPosLat="0.00" departSpeed="5.63" departDelay="0.00" arrival="16.40" arrivalLane="-road1_0" arrivalPos="19.96" arrivalPosLat="0.00" arrivalSpeed="12.04" duration="16.00" routeLength="122.77" waitingTime="0.00" waitingCount="0" stopTime="0.00" timeLoss="4.21" rerouteNo="1" devices="tripinfo_vehicle_65 routing_vehicle_65 emissions_vehicle_65 battery_vehicle_65" vType="human" speedFactor="0.88" vaporized="">
        <emissions CO_abs="0" CO2_abs="0" HC_abs="0" PMx_abs="0" NOx_abs="0" fuel_abs="0" electricity_abs="51.440281"/>
    </tripinfo>
    <tripinfo id="vehicle_60" depart="4.00" departLane="road0_0" departPos="4.10" departPosLat="0.00" departSpeed="3.21" departDelay="0.00" arrival="18.80" arrivalLane="-road3_0" arrivalPos="19.96" arrivalPosLat="0.00" arrivalSpeed="11.27" duration="14.80" routeLength="122.77" waitingTime="0.00" waitingCount="0" stopTime="0.00" timeLoss="4.60" rerouteNo="0" devices="tripinfo_vehicle_60 emissions_vehicle_60 battery_vehicle_60" vType="human" speedFactor="1.08" vaporized="">
        <emissions CO_abs="0" CO2_abs="0" HC_abs="0" PMx_abs="0" NOx_abs="0" fuel_abs="0" electricity_abs="55.144102"/>
    </tripinfo>
    <tripinfo id="vehicle_64" depart="3.20" departLane="road1_0" departPos="4.10" departPosLat="0.00" departSpeed="5.28" departDelay="0.80" arrival="19.60" arrivalLane="-road0_0" arrivalPos="19.96" arrivalPosLat="0.00" arrivalSpeed="12.08" duration="16.40" routeLength="122.77" waitingTime="0.00" waitingCount="0" stopTime="0.00" timeLoss="5.32" rerouteNo="1" devices="tripinfo_vehicle_64 routing_vehicle_64 emissions_vehicle_64 battery_vehicle_64" vType="human" speedFactor="0.94" vaporized="">
        <emissions CO_abs="0" CO2_abs="0" HC_abs="0" PMx_abs="0" NOx_abs="0" fuel_abs="0" electricity_abs="53.922126"/>
    </tripinfo>
    <tripinfo id="vehicle_22" depart="6.80" departLane="road3_0" departPos="4.10" departPosLat="0.00" departSpeed="3.25" departDelay="4.80" arrival="23.20" arrivalLane="-road2_0" arrivalPos="19.96" arrivalPosLat="0.00" arrivalSpeed="12.44" duration="16.40" routeLength="122.77" waitingTime="0.00" waitingCount="0" stopTime="0.00" timeLoss="5.58" rerouteNo="1" devices="tripinfo_vehicle_22 routing_vehicle_22 emissions_vehicle_22 battery_vehicle_22" vType="human" speedFactor="0.97" vaporized="">
        <emissions CO_abs="0" CO2_abs="0" HC_abs="0" PMx_abs="0" NOx_abs="0" fuel_abs="0" electricity_abs="61.485922"/>
    </tripinfo>
    <tripinfo id="vehicle_32" depart="1.60" departLane="road2_0" departPos="4.10" departPosLat="0.00" departSpeed="5.15" departDelay="0.80" arrival="26.40" arrivalLane="-road0_0" arrivalPos="19.96" arrivalPosLat="0.00" arrivalSpeed="13.52" duration="24.80" routeLength="206.37" waitingTime="0.00" waitingCount="0" stopTime="0.00" timeLoss="8.28" rerouteNo="1" devices="tripinfo_vehicle_32 routing_vehicle_32 emissions_vehicle_32 battery_vehicle_32" vType="human" speedFactor="1.01" vaporized="">
        <emissions CO_abs="0" CO2_abs="0" HC_abs="0" PMx_abs="0" NOx_abs="0" fuel_abs="0" electricity_abs="80.557664"/>
    </tripinfo>
    <tripinfo id="vehicle_15" depart="4.40" departLane="road3_0" departPos="4.10" departPosLat="0.00" departSpeed="0.88" departDelay="2.40" arrival="28.00" arrivalLane="-road1_0" arrivalPos="19.96" arrivalPosLat="0.00" arrivalSpeed="11.57" duration="23.60" routeLength="206.37" waitingTime="0.00" waitingCount="0" stopTime="0.00" timeLoss="5.86" rerouteNo="1" devices="tripinfo_vehicle_15 routing_vehicle_15 emissions_vehicle_15 battery_vehicle_15" vType="human" speedFactor="0.93" vaporized="">
        <emissions CO_abs="0" CO2_abs="0" HC_abs="0" PMx_abs="0" NOx_abs="0" fuel_abs="0" electricity_abs="76.634693"/>
    </tripinfo>
    <tripinfo id="rl_0" depart="5.20" departLane="road0_0" departPos="4.10" departPosLat="0.00" departSpeed="3.63" departDelay="0.40" arrival="28.40" arrivalLane="-road2_0" arrivalPos="19.96" arrivalPosLat="0.00" arrivalSpeed="13.15" duration="23.20" routeLength="206.37" waitingTime="0.00" waitingCount="0" stopTime="0.00" timeLoss="6.96" rerouteNo="0" devices="tripinfo_rl_0 emissions_rl_0 battery_rl_0 driverstaterl_0" vType="rlAnget" speedFactor="1.03" vaporized="">
        <emissions CO_abs="0" CO2_abs="0" HC_abs="0" PMx_abs="0" NOx_abs="0" fuel_abs="0" electricity_abs="84.695622"/>
    </tripinfo>
    <tripinfo id="vehicle_38" depart="4.80" departLane="road1_0" departPos="4.10" departPosLat="0.00" departSpeed="1.27" departDelay="1.20" arrival="29.20" arrivalLane="-road3_0" arrivalPos="19.96" arrivalPosLat="0.00" arrivalSpeed="12.68" duration="24.40" routeLength="206.37" waitingTime="0.00" waitingCount="0" stopTime="0.00" timeLoss="8.12" rerouteNo="1" devices="tripinfo_vehicle_38 routing_vehicle_38 emissions_vehicle_38 battery_vehicle_38" vType="human" speedFactor="1.10" vaporized="">
        <emissions CO_abs="0" CO2_abs="0" HC_abs="0" PMx_abs="0" NOx_abs="0" fuel_abs="0" electricity_abs="83.865341"/>
    </tripinfo>
    <tripinfo id="vehicle_28" depart="1.20" departLane="road3_0" departPos="4.10" departPosLat="0.00" departSpeed="1.18" departDelay="0.00" arrival="30.00" arrivalLane="-road0_0" arrivalPos="19.96" arrivalPosLat="0.00" arrivalSpeed="12.79" duration="28.80" routeLength="289.97" waitingTime="0.00" waitingCount="0" stopTime="0.00" timeLoss="6.36" rerouteNo="1" devices="tripinfo_vehicle_28 routing_vehicle_28 emissions_vehicle_28 battery_vehicle_28" vType="human" speedFactor="1.13" vaporized="">
        <emissions CO_abs="0" CO2_abs="0" HC_abs="0" PMx_abs="0" NOx_abs="0" fuel_abs="0" electricity_abs="107.298008"/>
    </tripinfo>
    <tripinfo id="vehicle_2" depart="2.40" departLane="road1_0" departPos="4.10" departPosLat="0.00" departSpeed="8.40" departDelay="0.00" arrival="30.80" arrivalLane="-road2_0" arrivalPos="19.96" arrivalPosLat="0.00" arrivalSpeed="11.89" duration="28.40" routeLength="289.97" waitingTime="0.00" waitingCount="0" stopTime="0.00" timeLoss="6.04" rerouteNo="1" devices="tripinfo_vehicle_2 routing_vehicle_2 emissions_vehicle_2 battery_vehicle_2" vType="human" speedFactor="1.01" vaporized="">
        <emissions CO_abs="0" CO2_abs="0" HC_abs="0" PMx_abs="0" NOx_abs="0" fuel_abs="0" electricity_abs="82.518394"/>
    </tripinfo>
    <tripinfo id="vehicle_0" depart="2.80" departLane="road3_0" departPos="4.10" departPosLat="0.00" departSpeed="4.18" departDelay="0.80" arrival="32.00" arrivalLane="-road0_0" arrivalPos="19.96" arrivalPosLat="0.00" arrivalSpeed="11.80" duration="29.20" routeLength="289.97" waitingTime="0.00" waitingCount="0" stopTime="0.00" timeLoss="6.95" rerouteNo="1" devices="tripinfo_vehicle_0 routing_vehicle_0 emissions_vehicle_0 battery_vehicle_0" vType="human" speedFactor="1.06" vaporized="">
        <emissions CO_abs="0" CO2_abs="0" HC_abs="0" PMx_abs="0" NOx_abs="0" fuel_abs="0" electricity_abs="95.147532"/>
    </tripinfo>
    <tripinfo id="vehicle_23" depart="2.80" departLane="road2_0" departPos="4.10" departPosLat="0.00" departSpeed="2.55" departDelay="0.00" arrival="35.20" arrivalLane="-road3_0" arrivalPos="19.96" arrivalPosLat="0.00" arrivalSpeed="11.55" duration="32.40" routeLength="289.97" waitingTime="0.00" waitingCount="0" stopTime="0.00" timeLoss="7.24" rerouteNo="1" devices="tripinfo_vehicle_23 routing_vehicle_23 emissions_vehicle_23 battery_vehicle_23" vType="human" speedFactor="0.89" vaporized="">
        <emissions CO_abs="0" CO2_abs="0" HC_abs="0" PMx_abs="0" NOx_abs="0" fuel_abs="0" electricity_abs="88.832674"/>
    </tripinfo>
    <tripinfo id="vehicle_63" depart="11.20" departLane="road3_0" departPos="4.10" departPosLat="0.00" departSpeed="3.12" departDelay="8.40" arrival="35.60" arrivalLane="-road2_0" arrivalPos="19.96" arrivalPosLat="0.00" arrivalSpeed="12.60" duration="24.40" routeLength="122.77" waitingTime="5.60" waitingCount="2" stopTime="0.00" timeLoss="14.18" rerouteNo="1" devices="tripinfo_vehicle_63 routing_vehicle_63 emissions_vehicle_63 battery_vehicle_63" vType="human" speedFactor="0.99" vaporized="">
        <emissions CO_abs="0" CO2_abs="0" HC_abs="0" PMx_abs="0" NOx_abs="0" fuel_abs="0" electricity_abs="62.432128"/>
    </tripinfo>
    <tripinfo id="vehicle_34" depart="8.80" departLane="road3_0" departPos="4.10" departPosLat="0.00" departSpeed="0.67" departDelay="6.80" arrival="40.00" arrivalLane="-road0_0" arrivalPos="19.96" arrivalPosLat="0.00" arrivalSpeed="12.64" duration="31.20" routeLength="289.97" waitingTime="0.00" waitingCount="0" stopTime="0.00" timeLoss="8.72" rerouteNo="1" devices="tripinfo_vehicle_34 routing_vehicle_34 emissions_vehicle_34 battery_vehicle_34" vType="human" speedFactor="0.99" vaporized="">
        <emissions CO_abs="0" CO2_abs="0" HC_abs="0" PMx_abs="0" NOx_abs="0" fuel_abs="0" electricity_abs="103.563572"/>
    </tripinfo>
    <tripinfo id="vehicle_74" depart="11.60" departLane="road0_0" departPos="4.10" departPosLat="0.00" departSpeed="5.37" departDelay="0.00" arrival="40.00" arrivalLane="-road2_0" arrivalPos="19.96" arrivalPosLat="0.00" arrivalSpeed="11.61" duration="28.40" routeLength="206.37" waitingTime="3.60" waitingCount="1" stopTime="0.00" timeLoss="11.48" rerouteNo="0" devices="tripinfo_vehicle_74 emissions_vehicle_74 battery_vehicle_74" vType="human" speedFactor="0.96" vaporized="">
        <emissions CO_abs="0" CO2_abs="0" HC_abs="0" PMx_abs="0" NOx_abs="0" fuel_abs="0" electricity_abs="70.224363"/>
    </tripinfo>
    <tripinfo id="vehicle_73" depart="6.80" departLane="road0_0" departPos="4.10" departPosLat="0.00" departSpeed="3.74" departDelay="0.80" arrival="40.40" arrivalLane="-road1_0" arrivalPos="19.96" arrivalPosLat="0.00" arrivalSpeed="12.84" duration="33.60" routeLength="289.97" waitingTime="0.00" waitingCount="0" stopTime="0.00" timeLoss="11.20" rerouteNo="0" devices="tripinfo_vehicle_73 emissions_vehicle_73 battery_vehicle_73" vType="human" speedFactor="1.06" vaporized="">
        <emissions CO_abs="0" CO2_abs="0" HC_abs="0" PMx_abs="0" NOx_abs="0" fuel_abs="0" electricity_abs="99.322308"/>
    </tripinfo>
    <tripinfo id="vehicle_35" depart="7.20" departLane="road1_0" departPos="4.10" departPosLat="0.00" departSpeed="2.37" departDelay="0.80" arrival="42.00" arrivalLane="-road3_0" arrivalPos="19.96" arrivalPosLat="0.00" arrivalSpeed="12.40" duration="34.80" routeLength="206.37" waitingTime="7.60" waitingCount="1" stopTime="0.00" timeLoss="18.36" rerouteNo="1" devices="tripinfo_vehicle_35 routing_vehicle_35 emissions_vehicle_35 battery_vehicle_35" vType="human" speedFactor="1.02" vaporized="">
        <emissions CO_abs="0" CO2_abs="0" HC_abs="0" PMx_abs="0" NOx_abs="0" fuel_abs="0" electricity_abs="79.215694"/>
    </tripinfo>
    <tripinfo id="vehicle_62" depart="9.60" departLane="road1_0" departPos="4.10" departPosLat="0.00" departSpeed="0.37" departDelay="3.20" arrival="44.40" arrivalLane="-road3_0" arrivalPos="19.96" arrivalPosLat="0.00" arrivalSpeed="12.04" duration="34.80" routeLength="206.37" waitingTime="6.00" waitingCount="1" stopTime="0.00" timeLoss="18.48" rerouteNo="1" devices="tripinfo_vehicle_62 routing_vehicle_62 emissions_vehicle_62 battery_vehicle_62" vType="human" speedFactor="1.02" vaporized="">
        <emissions CO_abs="0" CO2_abs="0" HC_abs="0" PMx_abs="0" NOx_abs="0" fuel_abs="0" electricity_abs="75.594694"/>
    </tripinfo>
    <tripinfo id="vehicle_3" depart="15.20" departLane="road0_0" departPos="4.10" departPosLat="0.00" departSpeed="1.03" departDelay="1.60" arrival="44.80" arrivalLane="-road2_0" arrivalPos="19.96" arrivalPosLat="0.00" arrivalSpeed="12.44" duration="29.60" routeLength="206.37" waitingTime="1.20" waitingCount="1" stopTime="0.00" timeLoss="13.58" rerouteNo="0" devices="tripinfo_vehicle_3 emissions_vehicle_3 battery_vehicle_3" vType="human" speedFactor="1.08" vaporized="">
        <emissions CO_abs="0" CO2_abs="0" HC_abs="0" PMx_abs="0" NOx_abs="0" fuel_abs="0" electricity_abs="81.923545"/>
    </tripinfo>
    <tripinfo id="vehicle_57" depart="28.00" departLane="road1_0" departPos="4.10" departPosLat="0.00" departSpeed="2.01" departDelay="12.00" arrival="46.80" arrivalLane="-road0_0" arrivalPos="19.96" arrivalPosLat="0.00" arrivalSpeed="12.76" duration="18.80" routeLength="122.77" waitingTime="0.00" waitingCount="0" stopTime="0.00" timeLoss="8.67" rerouteNo="1" devices="tripinfo_vehicle_57 routing_vehicle_57 emissions_vehicle_57 battery_vehicle_57" vType="human" speedFactor="1.14" vaporized="">
        <emissions CO_abs="0" CO2_abs="0" HC_abs="0" PMx_abs="0" NOx_abs="0" fuel_abs="0" electricity_abs="67.857848"/>
    </tripinfo>
    <tripinfo id="vehicle_31" depart="10.00" departLane="road2_0" departPos="4.10" departPosLat="0.00" departSpeed="1.19" departDelay="4.00" arrival="47.60" arrivalLane="-road1_0" arrivalPos="19.96" arrivalPosLat="0.00" arrivalSpeed="12.30" duration="37.60" routeLength="122.77" waitingTime="17.60" waitingCount="1" stopTime="0.00" timeLoss="27.57" rerouteNo="1" devices="tripinfo_vehicle_31 routing_vehicle_31 emissions_vehicle_31 battery_vehicle_31" vType="human" speedFactor="1.15" vaporized="">
        <emissions CO_abs="0" CO2_abs="0" HC_abs="0" PMx_abs="0" NOx_abs="0" fuel_abs="0" electricity_abs="64.712854"/>
    </tripinfo>
    <tripinfo id="vehicle_77" depart="32.80" departLane="road1_0" departPos="4.10" departPosLat="0.00" departSpeed="0.93" departDelay="14.40" arrival="50.40" arrivalLane="-road0_0" arrivalPos="19.96" arrivalPosLat="0.00" arrivalSpeed="13.02" duration="17.60" routeLength="122.77" waitingTime="0.00" waitingCount="0" stopTime="0.00" timeLoss="6.64" rerouteNo="1" devices="tripinfo_vehicle_77 routing_vehicle_77 emissions_vehicle_77 battery_vehicle_77" vType="human" speedFactor="0.98" vaporized="">
        <emissions CO_abs="0" CO2_abs="0" HC_abs="0" PMx_abs="0" NOx_abs="0" fuel_abs="0" electricity_abs="67.261947"/>
    </tripinfo>
    <tripinfo id="vehicle_7" depart="12.00" departLane="road1_0" departPos="4.10" departPosLat="0.00" departSpeed="1.47" departDelay="4.80" arrival="53.60" arrivalLane="-road2_0" arrivalPos="19.96" arrivalPosLat="0.00" arrivalSpeed="11.62" duration="41.60" routeLength="289.97" waitingTime="5.20" waitingCount="1" stopTime="0.00" timeLoss="16.41" rerouteNo="1" devices="tripinfo_vehicle_7 routing_vehicle_7 emissions_vehicle_7 battery_vehicle_7" vType="human" speedFactor="0.89" vaporized="">
        <emissions CO_abs="0" CO2_abs="0" HC_abs="0" PMx_abs="0" NOx_abs="0" fuel_abs="0" electricity_abs="90.065363"/>
    </tripinfo>
    <tripinfo id="vehicle_49" depart="12.80" departLane="road0_0" departPos="4.10" departPosLat="0.00" departSpeed="2.15" departDelay="0.40" arrival="53.60" arrivalLane="-road1_0" arrivalPos="19.96" arrivalPosLat="0.00" arrivalSpeed="11.57" duration="40.80" routeLength="289.97" waitingTime="2.00" waitingCount="1" stopTime="0.00" timeLoss="14.63" rerouteNo="0" devices="tripinfo_vehicle_49 emissions_vehicle_49 battery_vehicle_49" vType="human" speedFactor="0.85" vaporized="">
        <emissions CO_abs="0" CO2_abs="0" HC_abs="0" PMx_abs="0" NOx_abs="0" fuel_abs="0" electricity_abs="83.239736"/>
    </tripinfo>
    <tripinfo id="vehicle_9" depart="5.20" departLane="road2_0" departPos="4.10" departPosLat="0.00" departSpeed="0.16" departDelay="1.60" arrival="54.00" arrivalLane="-road0_0" arrivalPos="19.96" arrivalPosLat="0.00" arrivalSpeed="11.40" duration="48.80" routeLength="206.37" waitingTime="19.60" waitingCount="1" stopTime="0.00" timeLoss="29.51" rerouteNo="1" devices="tripinfo_vehicle_9 routing_vehicle_9 emissions_vehicle_9 battery_vehicle_9" vType="human" speedFactor="0.86" vaporized="">
        <emissions CO_abs="0" CO2_abs="0" HC_abs="0" PMx_abs="0" NOx_abs="0" fuel_abs="0" electricity_abs="70.063568"/>
    </tripinfo>
    <tripinfo id="vehicle_69" depart="36.40" departLane="road2_0" departPos="4.10" departPosLat="0.00" departSpeed="1.66" departDelay="25.20" arrival="55.20" arrivalLane="-road1_0" arrivalPos="19.96" arrivalPosLat="0.00" arrivalSpeed="12.67" duration="18.80" routeLength="122.77" waitingTime="0.00" waitingCount="0" stopTime="0.00" timeLoss="8.47" rerouteNo="1" devices="tripinfo_vehicle_69 routing_vehicle_69 emissions_vehicle_69 battery_vehicle_69" vType="human" speedFactor="1.02" vaporized="">
        <emissions CO_abs="0" CO2_abs="0" HC_abs="0" PMx_abs="0" NOx_abs="0" fuel_abs="0" electricity_abs="58.936257"/>
    </tripinfo>
    <tripinfo id="vehicle_75" depart="33.60" departLane="road2_0" departPos="4.10" departPosLat="0.00" departSpeed="1.27" departDelay="25.60" arrival="58.00" arrivalLane="-road0_0" arrivalPos="19.96" arrivalPosLat="0.00" arrivalSpeed="11.93" duration="24.40" routeLength="206.37" waitingTime="0.00" waitingCount="0" stopTime="0.00" timeLoss="7.92" rerouteNo="1" devices="tripinfo_vehicle_75 routing_vehicle_75 emissions_vehicle_75 battery_vehicle_75" vType="human" speedFactor="0.98" vaporized="">
        <emissions CO_abs="0" CO2_abs="0" HC_abs="0" PMx_abs="0" NOx_abs="0" fuel_abs="0" electricity_abs="77.257443"/>
    </tripinfo>
    <tripinfo id="vehicle_10" depart="40.40" departLane="road2_0" departPos="4.10" departPosLat="0.00" departSpeed="3.38" departDelay="23.60" arrival="59.60" arrivalLane="-road1_0" arrivalPos="19.96" arrivalPosLat="0.00" arrivalSpeed="12.37" duration="19.20" routeLength="122.77" waitingTime="0.00" waitingCount="0" stopTime="0.00" timeLoss="8.80" rerouteNo="1" devices="tripinfo_vehicle_10 routing_vehicle_10 emissions_vehicle_10 battery_vehicle_10" vType="human" speedFactor="1.09" vaporized="">
        <emissions CO_abs="0" CO2_abs="0" HC_abs="0" PMx_abs="0" NOx_abs="0" fuel_abs="0" electricity_abs="55.892621"/>
    </tripinfo>
    <tripinfo id="vehicle_78" depart="22.80" departLane="road1_0" departPos="4.10" departPosLat="0.00" departSpeed="1.23" departDelay="15.20" arrival="60.00" arrivalLane="-road2_0" arrivalPos="19.96" arrivalPosLat="0.00" arrivalSpeed="12.10" duration="37.20" routeLength="289.97" waitingTime="1.20" waitingCount="2" stopTime="0.00" timeLoss="14.88" rerouteNo="1" devices="tripinfo_vehicle_78 routing_vehicle_78 emissions_vehicle_78 battery_vehicle_78" vType="human" speedFactor="1.01" vaporized="">
        <emissions CO_abs="0" CO2_abs="0" HC_abs="0" PMx_abs="0" NOx_abs="0" fuel_abs="0" electricity_abs="95.824382"/>
    </tripinfo>
    <tripinfo id="vehicle_42" depart="7.60" departLane="road2_0" departPos="4.10" departPosLat="0.00" departSpeed="1.61" departDelay="2.00" arrival="63.20" arrivalLane="-road3_0" arrivalPos="19.96" arrivalPosLat="0.00" arrivalSpeed="12.22" duration="55.60" routeLength="289.97" waitingTime="18.40" waitingCount="1" stopTime="0.00" timeLoss="33.40" rerouteNo="1" devices="tripinfo_vehicle_42 routing_vehicle_42 emissions_vehicle_42 battery_vehicle_42" vType="human" speedFactor="1.09" vaporized="">
        <emissions CO_abs="0" CO2_abs="0" HC_abs="0" PMx_abs="0" NOx_abs="0" fuel_abs="0" electricity_abs="98.313750"/>
    </tripinfo>
    <tripinfo id="vehicle_1" depart="25.60" departLane="road1_0" departPos="4.10" departPosLat="0.00" departSpeed="2.92" departDelay="12.00" arrival="65.60" arrivalLane="-road2_0" arrivalPos="19.96" arrivalPosLat="0.00" arrivalSpeed="11.54" duration="40.00" routeLength="289.97" waitingTime="0.00" waitingCount="0" stopTime="0.00" timeLoss="16.13" rerouteNo="1" devices="tripinfo_vehicle_1 routing_vehicle_1 emissions_vehicle_1 battery_vehicle_1" vType="human" speedFactor="0.94" vaporized="">
        <emissions CO_abs="0" CO2_abs="0" HC_abs="0" PMx_abs="0" NOx_abs="0" fuel_abs="0" electricity_abs="87.727313"/>
    </tripinfo>
    <tripinfo id="vehicle_17" depart="38.40" departLane="road2_0" departPos="4.10" departPosLat="0.00" departSpeed="2.51" departDelay="24.40" arrival="66.40" arrivalLane="-road0_0" arrivalPos="19.96" arrivalPosLat="0.00" arrivalSpeed="11.70" duration="28.00" routeLength="206.37" waitingTime="0.00" waitingCount="0" stopTime="0.00" timeLoss="10.52" rerouteNo="1" devices="tripinfo_vehicle_17 routing_vehicle_17 emissions_vehicle_17 battery_vehicle_17" vType="human" speedFactor="0.94" vaporized="">
        <emissions CO_abs="0" CO2_abs="0" HC_abs="0" PMx_abs="0" NOx_abs="0" fuel_abs="0" electricity_abs="69.028604"/>
    </tripinfo>
    <tripinfo id="vehicle_30" depart="24.80" departLane="road0_0" departPos="4.10" departPosLat="0.00" departSpeed="2.47" departDelay="8.40" arrival="68.00" arrivalLane="-road3_0" arrivalPos="19.96" arrivalPosLat="0.00" arrivalSpeed="11.50" duration="43.20" routeLength="122.77" waitingTime="25.20" waitingCount="1" stopTime="0.00" timeLoss="33.32" rerouteNo="0" devices="tripinfo_vehicle_30 emissions_vehicle_30 battery_vehicle_30" vType="human" speedFactor="1.18" vaporized="">
        <emissions CO_abs="0" CO2_abs="0" HC_abs="0" PMx_abs="0" NOx_abs="0" fuel_abs="0" electricity_abs="59.426692"/>
    </tripinfo>
    <tripinfo id="vehicle_43" depart="42.40" departLane="road2_0" departPos="4.10" departPosLat="0.00" departSpeed="2.55" departDelay="24.40" arrival="69.20" arrivalLane="-road0_0" arrivalPos="19.96" arrivalPosLat="0.00" arrivalSpeed="13.25" duration="26.80" routeLength="206.37" waitingTime="0.00" waitingCount="0" stopTime="0.00" timeLoss="10.50" rerouteNo="1" devices="tripinfo_vehicle_43 routing_vehicle_43 emissions_vehicle_43 battery_vehicle_43" vType="human" speedFactor="1.04" vaporized="">
        <emissions CO_abs="0" CO2_abs="0" HC_abs="0" PMx_abs="0" NOx_abs="0" fuel_abs="0" electricity_abs="83.357988"/>
    </tripinfo>
    <tripinfo id="vehicle_13" depart="25.20" departLane="road3_0" departPos="4.10" departPosLat="0.00" departSpeed="1.04" departDelay="18.40" arrival="69.60" arrivalLane="-road1_0" arrivalPos="19.96" arrivalPosLat="0.00" arrivalSpeed="11.79" duration="44.40" routeLength="206.37" waitingTime="10.80" waitingCount="1" stopTime="0.00" timeLoss="28.24" rerouteNo="1" devices="tripinfo_vehicle_13 routing_vehicle_13 emissions_vehicle_13 battery_vehicle_13" vType="human" speedFactor="1.12" vaporized="">
        <emissions CO_abs="0" CO2_abs="0" HC_abs="0" PMx_abs="0" NOx_abs="0" fuel_abs="0" electricity_abs="73.798341"/>
    </tripinfo>
    <tripinfo id="vehicle_67" depart="27.20" departLane="road0_0" departPos="4.10" departPosLat="0.00" departSpeed="2.24" departDelay="8.00" arrival="71.20" arrivalLane="-road3_0" arrivalPos="19.96" arrivalPosLat="0.00" arrivalSpeed="12.08" duration="44.00" routeLength="122.77" waitingTime="24.00" waitingCount="2" stopTime="0.00" timeLoss="32.99" rerouteNo="0" devices="tripinfo_vehicle_67 emissions_vehicle_67 battery_vehicle_67" vType="human" speedFactor="0.91" vaporized="">
        <emissions CO_abs="0" CO2_abs="0" HC_abs="0" PMx_abs="0" NOx_abs="0" fuel_abs="0" electricity_abs="59.937263"/>
    </tripinfo>
    <tripinfo id="vehicle_44" depart="13.20" departLane="road3_0" departPos="4.10" departPosLat="0.00" departSpeed="0.23" departDelay="10.00" arrival="71.60" arrivalLane="-road0_0" arrivalPos="19.96" arrivalPosLat="0.00" arrivalSpeed="12.61" duration="58.40" routeLength="289.97" waitingTime="16.80" waitingCount="2" stopTime="0.00" timeLoss="36.02" rerouteNo="1" devices="tripinfo_vehicle_44 routing_vehicle_44 emissions_vehicle_44 battery_vehicle_44" vType="human" speedFactor="1.04" vaporized="">
        <emissions CO_abs="0" CO2_abs="0" HC_abs="0" PMx_abs="0" NOx_abs="0" fuel_abs="0" electricity_abs="99.146871"/>
    </tripinfo>
    <tripinfo id="vehicle_51" depart="47.20" departLane="road3_0" departPos="4.10" departPosLat="0.00" departSpeed="1.62" departDelay="36.80" arrival="74.00" arrivalLane="-road1_0" arrivalPos="19.96" arrivalPosLat="0.00" arrivalSpeed="12.94" duration="26.80" routeLength="206.37" waitingTime="0.00" waitingCount="0" stopTime="0.00" timeLoss="10.90" rerouteNo="1" devices="tripinfo_vehicle_51 routing_vehicle_51 emissions_vehicle_51 battery_vehicle_51" vType="human" speedFactor="1.17" vaporized="">
        <emissions CO_abs="0" CO2_abs="0" HC_abs="0" PMx_abs="0" NOx_abs="0" fuel_abs="0" electricity_abs="82.184523"/>
    </tripinfo>
    <tripinfo id="vehicle_48" depart="15.60" departLane="road3_0" departPos="4.10" departPosLat="0.00" departSpeed="0.70" departDelay="11.60" arrival="74.80" arrivalLane="-road0_0" arrivalPos="19.96" arrivalPosLat="0.00" arrivalSpeed="10.81" duration="59.20" routeLength="289.97" waitingTime="16.00" waitingCount="2" stopTime="0.00" timeLoss="33.73" rerouteNo="1" devices="tripinfo_vehicle_48 routing_vehicle_48 emissions_vehicle_48 battery_vehicle_48" vType="human" speedFactor="0.88" vaporized="">
        <emissions CO_abs="0" CO2_abs="0" HC_abs="0" PMx_abs="0" NOx_abs="0" fuel_abs="0" electricity_abs="80.865144"/>
    </tripinfo>
    <tripinfo id="vehicle_46" depart="49.60" departLane="road3_0" departPos="4.10" departPosLat="0.00" departSpeed="3.47" departDelay="38.40" arrival="77.20" arrivalLane="-road1_0" arrivalPos="19.96" arrivalPosLat="0.00" arrivalSpeed="12.05" duration="27.60" routeLength="206.37" waitingTime="0.00" waitingCount="0" stopTime="0.00" timeLoss="11.16" rerouteNo="1" devices="tripinfo_vehicle_46 routing_vehicle_46 emissions_vehicle_46 battery_vehicle_46" vType="human" speedFactor="1.00" vaporized="">
        <emissions CO_abs="0" CO2_abs="0" HC_abs="0" PMx_abs="0" NOx_abs="0" fuel_abs="0" electricity_abs="71.131203"/>
    </tripinfo>
    <tripinfo id="vehicle_41" depart="35.60" departLane="road1_0" departPos="4.10" departPosLat="0.00" departSpeed="1.89" departDelay="16.80" arrival="77.60" arrivalLane="-road0_0" arrivalPos="19.96" arrivalPosLat="0.00" arrivalSpeed="11.88" duration="42.00" routeLength="122.77" waitingTime="22.40" waitingCount="1" stopTime="0.00" timeLoss="31.17" rerouteNo="1" devices="tripinfo_vehicle_41 routing_vehicle_41 emissions_vehicle_41 battery_vehicle_41" vType="human" speedFactor="0.96" vaporized="">
        <emissions CO_abs="0" CO2_abs="0" HC_abs="0" PMx_abs="0" NOx_abs="0" fuel_abs="0" electricity_abs="58.891324"/>
    </tripinfo>
    <tripinfo id="vehicle_12" depart="44.40" departLane="road2_0" departPos="4.10" departPosLat="0.00" departSpeed="2.03" departDelay="23.60" arrival="78.40" arrivalLane="-road3_0" arrivalPos="19.96" arrivalPosLat="0.00" arrivalSpeed="11.76" duration="34.00" routeLength="289.97" waitingTime="0.00" waitingCount="0" stopTime="0.00" timeLoss="11.54" rerouteNo="1" devices="tripinfo_vehicle_12 routing_vehicle_12 emissions_vehicle_12 battery_vehicle_12" vType="human" speedFactor="1.05" vaporized="">
        <emissions CO_abs="0" CO2_abs="0" HC_abs="0" PMx_abs="0" NOx_abs="0" fuel_abs="0" electricity_abs="95.113082"/>
    </tripinfo>
    <tripinfo id="vehicle_33" depart="53.60" departLane="road3_0" departPos="4.10" departPosLat="0.00" departSpeed="2.96" departDelay="41.60" arrival="79.20" arrivalLane="-road1_0" arrivalPos="19.96" arrivalPosLat="0.00" arrivalSpeed="13.35" duration="25.60" routeLength="206.37" waitingTime="0.00" waitingCount="0" stopTime="0.00" timeLoss="9.67" rerouteNo="1" devices="tripinfo_vehicle_33 routing_vehicle_33 emissions_vehicle_33 battery_vehicle_33" vType="human" speedFactor="1.17" vaporized="">
        <emissions CO_abs="0" CO2_abs="0" HC_abs="0" PMx_abs="0" NOx_abs="0" fuel_abs="0" electricity_abs="82.817161"/>
    </tripinfo>
    <tripinfo id="vehicle_20" depart="42.40" departLane="road3_0" departPos="4.10" departPosLat="0.00" departSpeed="1.25" departDelay="34.80" arrival="81.60" arrivalLane="-road0_0" arrivalPos="19.96" arrivalPosLat="0.00" arrivalSpeed="12.71" duration="39.20" routeLength="289.97" waitingTime="0.00" waitingCount="0" stopTime="0.00" timeLoss="16.73" rerouteNo="1" devices="tripinfo_vehicle_20 routing_vehicle_20 emissions_vehicle_20 battery_vehicle_20" vType="human" speedFactor="1.02" vaporized="">
        <emissions CO_abs="0" CO2_abs="0" HC_abs="0" PMx_abs="0" NOx_abs="0" fuel_abs="0" electricity_abs="98.301728"/>
    </tripinfo>
    <tripinfo id="vehicle_53" depart="22.40" departLane="road0_0" departPos="4.10" departPosLat="0.00" departSpeed="1.10" departDelay="6.80" arrival="82.00" arrivalLane="-road1_0" arrivalPos="19.96" arrivalPosLat="0.00" arrivalSpeed="11.35" duration="59.60" routeLength="289.97" waitingTime="25.20" waitingCount="1" stopTime="0.00" timeLoss="37.44" rerouteNo="0" devices="tripinfo_vehicle_53 emissions_vehicle_53 battery_vehicle_53" vType="human" speedFactor="1.10" vaporized="">