<?xml version="1.0" encoding="UTF-8"?>

<!-- generated on 2024-11-01 21:38:05 by Eclipse SUMO sumo Version v1_20_0+0085-e155ab8699b
<configuration xmlns:xsi="http://www.w3.org/2001/XMLSchema-instance" xsi:noNamespaceSchemaLocation="http://sumo.dlr.de/xsd/sumoConfiguration.xsd">

    <input>
        <net-file value="../networks/roundabout.net.xml"/>
        <route-files value="../networks/routes1.rou.xml"/>
    </input>

    <output>
        <output-prefix value="236-"/>
        <battery-output.precision value="4"/>
        <tripinfo-output value="../networks/output_data/output_default/tripinfo/tripinfo-output.xml"/>
        <collision-output value="../networks/output_data/output_default/collision/collision-output.xml"/>
    </output>

    <time>
        <begin value="0"/>
        <step-length value="0.4"/>
    </time>

    <processing>
        <step-method.ballistic value="true"/>
        <lateral-resolution value="3.2"/>
        <collision.action value="warn"/>
        <collision.check-junctions value="True"/>
        <collision.mingap-factor value="0"/>
        <time-to-teleport value="-1"/>
        <random-depart-offset value="5"/>
    </processing>

    <report>
        <no-warnings value="True"/>
        <no-step-log value="True"/>
    </report>

    <emissions>
        <device.emissions.probability value="1"/>
    </emissions>

    <battery>
        <device.battery.probability value="1"/>
    </battery>

    <traci_server>
        <remote-port value="58561"/>
    </traci_server>

    <gui_only>
        <quit-on-end value="True"/>
        <start value="True"/>
    </gui_only>

</configuration>
-->

<tripinfos xmlns:xsi="http://www.w3.org/2001/XMLSchema-instance" xsi:noNamespaceSchemaLocation="http://sumo.dlr.de/xsd/tripinfo_file.xsd">
    <tripinfo id="vehicle_69" depart="2.00" departLane="road2_0" departPos="4.10" departPosLat="0.00" departSpeed="9.75" departDelay="0.01" arrival="16.00" arrivalLane="-road1_0" arrivalPos="19.96" arrivalPosLat="0.00" arrivalSpeed="12.66" duration="14.00" routeLength="122.77" waitingTime="0.00" waitingCount="0" stopTime="0.00" timeLoss="3.68" rerouteNo="1" devices="tripinfo_vehicle_69 routing_vehicle_69 emissions_vehicle_69 battery_vehicle_69" vType="human" speedFactor="1.02" vaporized="">
        <emissions CO_abs="0" CO2_abs="0" HC_abs="0" PMx_abs="0" NOx_abs="0" fuel_abs="0" electricity_abs="43.903860"/>
    </tripinfo>
    <tripinfo id="vehicle_20" depart="1.20" departLane="road3_0" departPos="4.10" departPosLat="0.00" departSpeed="0.10" departDelay="0.04" arrival="16.80" arrivalLane="-road2_0" arrivalPos="19.96" arrivalPosLat="0.00" arrivalSpeed="12.51" duration="15.60" routeLength="122.77" waitingTime="0.00" waitingCount="0" stopTime="0.00" timeLoss="5.36" rerouteNo="1" devices="tripinfo_vehicle_20 routing_vehicle_20 emissions_vehicle_20 battery_vehicle_20" vType="human" speedFactor="1.02" vaporized="">
        <emissions CO_abs="0" CO2_abs="0" HC_abs="0" PMx_abs="0" NOx_abs="0" fuel_abs="0" electricity_abs="64.739396"/>
    </tripinfo>
    <tripinfo id="vehicle_6" depart="3.60" departLane="road0_0" departPos="4.10" departPosLat="0.00" departSpeed="8.04" departDelay="0.20" arrival="18.00" arrivalLane="-road3_0" arrivalPos="19.96" arrivalPosLat="0.00" arrivalSpeed="11.92" duration="14.40" routeLength="122.77" waitingTime="0.00" waitingCount="0" stopTime="0.00" timeLoss="3.99" rerouteNo="0" devices="tripinfo_vehicle_6 emissions_vehicle_6 battery_vehicle_6" vType="human" speedFactor="1.05" vaporized="">
        <emissions CO_abs="0" CO2_abs="0" HC_abs="0" PMx_abs="0" NOx_abs="0" fuel_abs="0" electricity_abs="46.416411"/>
    </tripinfo>
    <tripinfo id="vehicle_14" depart="3.20" departLane="road2_0" departPos="4.10" departPosLat="0.00" departSpeed="5.40" departDelay="0.32" arrival="18.80" arrivalLane="-road1_0" arrivalPos="19.96" arrivalPosLat="0.00" arrivalSpeed="12.24" duration="15.60" routeLength="122.77" waitingTime="0.00" waitingCount="0" stopTime="0.00" timeLoss="5.21" rerouteNo="1" devices="tripinfo_vehicle_14 routing_vehicle_14 emissions_vehicle_14 battery_vehicle_14" vType="human" speedFactor="0.99" vaporized="">
        <emissions CO_abs="0" CO2_abs="0" HC_abs="0" PMx_abs="0" NOx_abs="0" fuel_abs="0" electricity_abs="55.209830"/>
    </tripinfo>
    <tripinfo id="vehicle_13" depart="5.20" departLane="road3_0" departPos="4.10" departPosLat="0.00" departSpeed="2.61" departDelay="3.42" arrival="20.80" arrivalLane="-road2_0" arrivalPos="19.96" arrivalPosLat="0.00" arrivalSpeed="12.59" duration="15.60" routeLength="122.77" waitingTime="0.00" waitingCount="0" stopTime="0.00" timeLoss="5.53" rerouteNo="1" devices="tripinfo_vehicle_13 routing_vehicle_13 emissions_vehicle_13 battery_vehicle_13" vType="human" speedFactor="1.12" vaporized="">
        <emissions CO_abs="0" CO2_abs="0" HC_abs="0" PMx_abs="0" NOx_abs="0" fuel_abs="0" electricity_abs="64.779432"/>
    </tripinfo>
    <tripinfo id="vehicle_31" depart="0.40" departLane="road3_0" departPos="4.10" departPosLat="0.00" departSpeed="6.33" departDelay="0.32" arrival="20.80" arrivalLane="-road1_0" arrivalPos="19.96" arrivalPosLat="0.00" arrivalSpeed="12.27" duration="20.40" routeLength="206.37" waitingTime="0.00" waitingCount="0" stopTime="0.00" timeLoss="4.38" rerouteNo="1" devices="tripinfo_vehicle_31 routing_vehicle_31 emissions_vehicle_31 battery_vehicle_31" vType="human" speedFactor="1.15" vaporized="">
        <emissions CO_abs="0" CO2_abs="0" HC_abs="0" PMx_abs="0" NOx_abs="0" fuel_abs="0" electricity_abs="75.420079"/>
    </tripinfo>
    <tripinfo id="vehicle_33" depart="9.60" departLane="road1_0" departPos="4.10" departPosLat="0.00" departSpeed="4.08" departDelay="0.27" arrival="23.20" arrivalLane="-road0_0" arrivalPos="19.96" arrivalPosLat="0.00" arrivalSpeed="12.65" duration="13.60" routeLength="122.77" waitingTime="0.00" waitingCount="0" stopTime="0.00" timeLoss="3.51" rerouteNo="1" devices="tripinfo_vehicle_33 routing_vehicle_33 emissions_vehicle_33 battery_vehicle_33" vType="human" speedFactor="1.17" vaporized="">
        <emissions CO_abs="0" CO2_abs="0" HC_abs="0" PMx_abs="0" NOx_abs="0" fuel_abs="0" electricity_abs="65.397699"/>
    </tripinfo>
    <tripinfo id="vehicle_24" depart="7.60" departLane="road0_0" departPos="4.10" departPosLat="0.00" departSpeed="3.96" departDelay="0.16" arrival="24.40" arrivalLane="-road3_0" arrivalPos="19.96" arrivalPosLat="0.00" arrivalSpeed="11.33" duration="16.80" routeLength="122.77" waitingTime="0.00" waitingCount="0" stopTime="0.00" timeLoss="4.22" rerouteNo="0" devices="tripinfo_vehicle_24 emissions_vehicle_24 battery_vehicle_24" vType="human" speedFactor="0.83" vaporized="">
        <emissions CO_abs="0" CO2_abs="0" HC_abs="0" PMx_abs="0" NOx_abs="0" fuel_abs="0" electricity_abs="49.666945"/>
    </tripinfo>
    <tripinfo id="vehicle_78" depart="11.20" departLane="road3_0" departPos="4.10" departPosLat="0.00" departSpeed="2.32" departDelay="6.32" arrival="27.60" arrivalLane="-road2_0" arrivalPos="19.96" arrivalPosLat="0.00" arrivalSpeed="11.65" duration="16.40" routeLength="122.77" waitingTime="0.00" waitingCount="0" stopTime="0.00" timeLoss="5.87" rerouteNo="1" devices="tripinfo_vehicle_78 routing_vehicle_78 emissions_vehicle_78 battery_vehicle_78" vType="human" speedFactor="1.01" vaporized="">
        <emissions CO_abs="0" CO2_abs="0" HC_abs="0" PMx_abs="0" NOx_abs="0" fuel_abs="0" electricity_abs="57.482605"/>
    </tripinfo>
    <tripinfo id="vehicle_59" depart="6.00" departLane="road1_0" departPos="4.10" departPosLat="0.00" departSpeed="4.21" departDelay="0.20" arrival="28.00" arrivalLane="-road3_0" arrivalPos="19.96" arrivalPosLat="0.00" arrivalSpeed="12.38" duration="22.00" routeLength="206.37" waitingTime="0.00" waitingCount="0" stopTime="0.00" timeLoss="4.93" rerouteNo="1" devices="tripinfo_vehicle_59 routing_vehicle_59 emissions_vehicle_59 battery_vehicle_59" vType="human" speedFactor="0.97" vaporized="">
        <emissions CO_abs="0" CO2_abs="0" HC_abs="0" PMx_abs="0" NOx_abs="0" fuel_abs="0" electricity_abs="78.649197"/>
    </tripinfo>
    <tripinfo id="vehicle_53" depart="7.20" departLane="road3_0" departPos="4.10" departPosLat="0.00" departSpeed="0.68" departDelay="5.45" arrival="30.80" arrivalLane="-road1_0" arrivalPos="19.96" arrivalPosLat="0.00" arrivalSpeed="12.47" duration="23.60" routeLength="206.37" waitingTime="0.00" waitingCount="0" stopTime="0.00" timeLoss="7.05" rerouteNo="1" devices="tripinfo_vehicle_53 routing_vehicle_53 emissions_vehicle_53 battery_vehicle_53" vType="human" speedFactor="1.10" vaporized="">
        <emissions CO_abs="0" CO2_abs="0" HC_abs="0" PMx_abs="0" NOx_abs="0" fuel_abs="0" electricity_abs="83.907907"/>
    </tripinfo>
    <tripinfo id="vehicle_15" depart="12.40" departLane="road0_0" departPos="4.10" departPosLat="0.00" departSpeed="2.55" departDelay="3.16" arrival="32.40" arrivalLane="-road3_0" arrivalPos="19.96" arrivalPosLat="0.00" arrivalSpeed="12.93" duration="20.00" routeLength="122.77" waitingTime="0.00" waitingCount="0" stopTime="0.00" timeLoss="8.80" rerouteNo="0" devices="tripinfo_vehicle_15 emissions_vehicle_15 battery_vehicle_15" vType="human" speedFactor="0.93" vaporized="">
        <emissions CO_abs="0" CO2_abs="0" HC_abs="0" PMx_abs="0" NOx_abs="0" fuel_abs="0" electricity_abs="60.689393"/>
    </tripinfo>
    <tripinfo id="vehicle_64" depart="3.60" departLane="road3_0" departPos="4.10" departPosLat="0.00" departSpeed="1.44" departDelay="2.66" arrival="34.00" arrivalLane="-road0_0" arrivalPos="19.96" arrivalPosLat="0.00" arrivalSpeed="12.31" duration="30.40" routeLength="289.97" waitingTime="0.00" waitingCount="0" stopTime="0.00" timeLoss="6.56" rerouteNo="1" devices="tripinfo_vehicle_64 routing_vehicle_64 emissions_vehicle_64 battery_vehicle_64" vType="human" speedFactor="0.94" vaporized="">
        <emissions CO_abs="0" CO2_abs="0" HC_abs="0" PMx_abs="0" NOx_abs="0" fuel_abs="0" electricity_abs="97.600154"/>
    </tripinfo>
    <tripinfo id="vehicle_34" depart="10.80" departLane="road1_0" departPos="4.10" departPosLat="0.00" departSpeed="0.67" departDelay="0.53" arrival="34.80" arrivalLane="-road3_0" arrivalPos="19.96" arrivalPosLat="0.00" arrivalSpeed="13.25" duration="24.00" routeLength="206.37" waitingTime="0.00" waitingCount="0" stopTime="0.00" timeLoss="7.38" rerouteNo="1" devices="tripinfo_vehicle_34 routing_vehicle_34 emissions_vehicle_34 battery_vehicle_34" vType="human" speedFactor="0.99" vaporized="">
        <emissions CO_abs="0" CO2_abs="0" HC_abs="0" PMx_abs="0" NOx_abs="0" fuel_abs="0" electricity_abs="86.873843"/>
    </tripinfo>
    <tripinfo id="vehicle_4" depart="16.80" departLane="road1_0" departPos="4.10" departPosLat="0.00" departSpeed="2.14" departDelay="2.51" arrival="36.40" arrivalLane="-road0_0" arrivalPos="19.96" arrivalPosLat="0.00" arrivalSpeed="11.70" duration="19.60" routeLength="122.77" waitingTime="0.00" waitingCount="0" stopTime="0.00" timeLoss="9.24" rerouteNo="1" devices="tripinfo_vehicle_4 routing_vehicle_4 emissions_vehicle_4 battery_vehicle_4" vType="human" speedFactor="1.03" vaporized="">
        <emissions CO_abs="0" CO2_abs="0" HC_abs="0" PMx_abs="0" NOx_abs="0" fuel_abs="0" electricity_abs="52.893864"/>
    </tripinfo>
    <tripinfo id="vehicle_3" depart="15.20" departLane="road3_0" departPos="4.10" departPosLat="0.00" departSpeed="2.56" departDelay="8.90" arrival="38.00" arrivalLane="-road1_0" arrivalPos="19.96" arrivalPosLat="0.00" arrivalSpeed="12.48" duration="22.80" routeLength="206.37" waitingTime="0.00" waitingCount="0" stopTime="0.00" timeLoss="6.65" rerouteNo="1" devices="tripinfo_vehicle_3 routing_vehicle_3 emissions_vehicle_3 battery_vehicle_3" vType="human" speedFactor="1.08" vaporized="">
        <emissions CO_abs="0" CO2_abs="0" HC_abs="0" PMx_abs="0" NOx_abs="0" fuel_abs="0" electricity_abs="83.639915"/>
    </tripinfo>
    <tripinfo id="vehicle_46" depart="21.60" departLane="road1_0" departPos="4.10" departPosLat="0.00" departSpeed="2.35" departDelay="6.79" arrival="38.80" arrivalLane="-road0_0" arrivalPos="19.96" arrivalPosLat="0.00" arrivalSpeed="12.21" duration="17.20" routeLength="122.77" waitingTime="0.00" waitingCount="0" stopTime="0.00" timeLoss="6.69" rerouteNo="1" devices="tripinfo_vehicle_46 routing_vehicle_46 emissions_vehicle_46 battery_vehicle_46" vType="human" speedFactor="1.00" vaporized="">
        <emissions CO_abs="0" CO2_abs="0" HC_abs="0" PMx_abs="0" NOx_abs="0" fuel_abs="0" electricity_abs="58.457663"/>
    </tripinfo>
    <tripinfo id="vehicle_2" depart="9.20" departLane="road0_0" departPos="4.10" departPosLat="0.00" departSpeed="4.15" departDelay="0.04" arrival="40.00" arrivalLane="-road1_0" arrivalPos="19.96" arrivalPosLat="0.00" arrivalSpeed="12.39" duration="30.80" routeLength="289.97" waitingTime="0.00" waitingCount="0" stopTime="0.00" timeLoss="8.39" rerouteNo="0" devices="tripinfo_vehicle_2 emissions_vehicle_2 battery_vehicle_2" vType="human" speedFactor="1.01" vaporized="">
        <emissions CO_abs="0" CO2_abs="0" HC_abs="0" PMx_abs="0" NOx_abs="0" fuel_abs="0" electricity_abs="93.982622"/>
    </tripinfo>
    <tripinfo id="vehicle_60" depart="9.60" departLane="road3_0" departPos="4.10" departPosLat="0.00" departSpeed="3.39" departDelay="7.66" arrival="41.20" arrivalLane="-road0_0" arrivalPos="19.96" arrivalPosLat="0.00" arrivalSpeed="11.84" duration="31.60" routeLength="289.97" waitingTime="0.00" waitingCount="0" stopTime="0.00" timeLoss="9.10" rerouteNo="1" devices="tripinfo_vehicle_60 routing_vehicle_60 emissions_vehicle_60 battery_vehicle_60" vType="human" speedFactor="1.08" vaporized="">
        <emissions CO_abs="0" CO2_abs="0" HC_abs="0" PMx_abs="0" NOx_abs="0" fuel_abs="0" electricity_abs="93.845887"/>
    </tripinfo>
    <tripinfo id="vehicle_28" depart="26.00" departLane="road1_0" departPos="4.10" departPosLat="0.00" departSpeed="3.27" departDelay="9.30" arrival="44.80" arrivalLane="-road0_0" arrivalPos="19.96" arrivalPosLat="0.00" arrivalSpeed="12.18" duration="18.80" routeLength="122.77" waitingTime="0.00" waitingCount="0" stopTime="0.00" timeLoss="8.85" rerouteNo="1" devices="tripinfo_vehicle_28 routing_vehicle_28 emissions_vehicle_28 battery_vehicle_28" vType="human" speedFactor="1.13" vaporized="">
        <emissions CO_abs="0" CO2_abs="0" HC_abs="0" PMx_abs="0" NOx_abs="0" fuel_abs="0" electricity_abs="54.333323"/>
    </tripinfo>
    <tripinfo id="vehicle_63" depart="14.80" departLane="road1_0" departPos="4.10" departPosLat="0.00" departSpeed="3.58" departDelay="3.17" arrival="44.80" arrivalLane="-road2_0" arrivalPos="19.96" arrivalPosLat="0.00" arrivalSpeed="12.60" duration="30.00" routeLength="289.97" waitingTime="0.00" waitingCount="0" stopTime="0.00" timeLoss="7.21" rerouteNo="1" devices="tripinfo_vehicle_63 routing_vehicle_63 emissions_vehicle_63 battery_vehicle_63" vType="human" speedFactor="0.99" vaporized="">
        <emissions CO_abs="0" CO2_abs="0" HC_abs="0" PMx_abs="0" NOx_abs="0" fuel_abs="0" electricity_abs="100.796176"/>
    </tripinfo>
    <tripinfo id="vehicle_50" depart="10.80" departLane="road0_0" departPos="4.10" departPosLat="0.00" departSpeed="4.14" departDelay="1.63" arrival="46.00" arrivalLane="-road1_0" arrivalPos="19.96" arrivalPosLat="0.00" arrivalSpeed="10.89" duration="35.20" routeLength="289.97" waitingTime="0.00" waitingCount="0" stopTime="0.00" timeLoss="9.25" rerouteNo="0" devices="tripinfo_vehicle_50 emissions_vehicle_50 battery_vehicle_50" vType="human" speedFactor="0.85" vaporized="">
        <emissions CO_abs="0" CO2_abs="0" HC_abs="0" PMx_abs="0" NOx_abs="0" fuel_abs="0" electricity_abs="78.304397"/>
    </tripinfo>
    <tripinfo id="vehicle_16" depart="12.80" departLane="road1_0" departPos="4.10" departPosLat="0.00" departSpeed="3.42" departDelay="1.44" arrival="47.20" arrivalLane="-road2_0" arrivalPos="19.96" arrivalPosLat="0.00" arrivalSpeed="12.20" duration="34.40" routeLength="289.97" waitingTime="0.00" waitingCount="0" stopTime="0.00" timeLoss="8.97" rerouteNo="1" devices="tripinfo_vehicle_16 routing_vehicle_16 emissions_vehicle_16 battery_vehicle_16" vType="human" speedFactor="0.88" vaporized="">
        <emissions CO_abs="0" CO2_abs="0" HC_abs="0" PMx_abs="0" NOx_abs="0" fuel_abs="0" electricity_abs="87.223852"/>
    </tripinfo>
    <tripinfo id="vehicle_25" depart="13.20" departLane="road3_0" departPos="4.10" departPosLat="0.00" departSpeed="2.57" departDelay="7.56" arrival="48.40" arrivalLane="-road0_0" arrivalPos="19.96" arrivalPosLat="-0.00" arrivalSpeed="10.88" duration="35.20" routeLength="289.97" waitingTime="0.00" waitingCount="0" stopTime="0.00" timeLoss="9.82" rerouteNo="1" devices="tripinfo_vehicle_25 routing_vehicle_25 emissions_vehicle_25 battery_vehicle_25" vType="human" speedFactor="0.87" vaporized="">
        <emissions CO_abs="0" CO2_abs="0" HC_abs="0" PMx_abs="0" NOx_abs="0" fuel_abs="0" electricity_abs="82.330555"/>
    </tripinfo>
    <tripinfo id="vehicle_57" depart="4.40" departLane="road2_0" departPos="4.10" departPosLat="0.00" departSpeed="2.99" departDelay="1.43" arrival="48.80" arrivalLane="-road1_0" arrivalPos="19.96" arrivalPosLat="0.00" arrivalSpeed="11.90" duration="44.40" routeLength="122.77" waitingTime="26.00" waitingCount="1" stopTime="0.00" timeLoss="34.42" rerouteNo="1" devices="tripinfo_vehicle_57 routing_vehicle_57 emissions_vehicle_57 battery_vehicle_57" vType="human" speedFactor="1.14" vaporized="">
        <emissions CO_abs="0" CO2_abs="0" HC_abs="0" PMx_abs="0" NOx_abs="0" fuel_abs="0" electricity_abs="60.324091"/>
    </tripinfo>
    <tripinfo id="vehicle_29" depart="14.80" departLane="road0_0" departPos="4.10" departPosLat="0.00" departSpeed="0.21" departDelay="4.67" arrival="50.00" arrivalLane="-road2_0" arrivalPos="19.96" arrivalPosLat="0.00" arrivalSpeed="12.02" duration="35.20" routeLength="206.37" waitingTime="8.40" waitingCount="1" stopTime="0.00" timeLoss="17.55" rerouteNo="0" devices="tripinfo_vehicle_29 emissions_vehicle_29 battery_vehicle_29" vType="human" speedFactor="0.93" vaporized="">
        <emissions CO_abs="0" CO2_abs="0" HC_abs="0" PMx_abs="0" NOx_abs="0" fuel_abs="0" electricity_abs="80.399145"/>
    </tripinfo>
    <tripinfo id="vehicle_42" depart="19.20" departLane="road1_0" departPos="4.10" departPosLat="0.00" departSpeed="0.84" departDelay="4.84" arrival="52.00" arrivalLane="-road2_0" arrivalPos="19.96" arrivalPosLat="0.00" arrivalSpeed="11.39" duration="32.80" routeLength="289.97" waitingTime="0.00" waitingCount="0" stopTime="0.00" timeLoss="10.51" rerouteNo="1" devices="tripinfo_vehicle_42 routing_vehicle_42 emissions_vehicle_42 battery_vehicle_42" vType="human" speedFactor="1.09" vaporized="">
        <emissions CO_abs="0" CO2_abs="0" HC_abs="0" PMx_abs="0" NOx_abs="0" fuel_abs="0" electricity_abs="93.796332"/>
    </tripinfo>
    <tripinfo id="vehicle_72" depart="8.80" departLane="road2_0" departPos="4.10" departPosLat="0.00" departSpeed="2.09" departDelay="2.41" arrival="53.20" arrivalLane="-road1_0" arrivalPos="19.96" arrivalPosLat="0.00" arrivalSpeed="11.61" duration="44.40" routeLength="122.77" waitingTime="23.60" waitingCount="1" stopTime="0.00" timeLoss="33.56" rerouteNo="1" devices="tripinfo_vehicle_72 routing_vehicle_72 emissions_vehicle_72 battery_vehicle_72" vType="human" speedFactor="0.94" vaporized="">
        <emissions CO_abs="0" CO2_abs="0" HC_abs="0" PMx_abs="0" NOx_abs="0" fuel_abs="0" electricity_abs="58.052944"/>
    </tripinfo>
    <tripinfo id="vehicle_56" depart="34.00" departLane="road1_0" departPos="4.10" departPosLat="0.00" departSpeed="2.20" departDelay="12.45" arrival="57.20" arrivalLane="-road0_0" arrivalPos="19.96" arrivalPosLat="0.00" arrivalSpeed="11.19" duration="23.20" routeLength="122.77" waitingTime="0.00" waitingCount="0" stopTime="0.00" timeLoss="11.56" rerouteNo="1" devices="tripinfo_vehicle_56 routing_vehicle_56 emissions_vehicle_56 battery_vehicle_56" vType="human" speedFactor="0.90" vaporized="">
        <emissions CO_abs="0" CO2_abs="0" HC_abs="0" PMx_abs="0" NOx_abs="0" fuel_abs="0" electricity_abs="46.924571"/>
    </tripinfo>
    <tripinfo id="vehicle_22" depart="24.00" departLane="road1_0" departPos="4.10" departPosLat="0.00" departSpeed="3.05" departDelay="8.55" arrival="57.60" arrivalLane="-road2_0" arrivalPos="19.96" arrivalPosLat="0.00" arrivalSpeed="12.59" duration="33.60" routeLength="289.97" waitingTime="0.00" waitingCount="0" stopTime="0.00" timeLoss="10.94" rerouteNo="1" devices="tripinfo_vehicle_22 routing_vehicle_22 emissions_vehicle_22 battery_vehicle_22" vType="human" speedFactor="0.97" vaporized="">
        <emissions CO_abs="0" CO2_abs="0" HC_abs="0" PMx_abs="0" NOx_abs="0" fuel_abs="0" electricity_abs="95.536180"/>
    </tripinfo>
    <tripinfo id="vehicle_49" depart="41.20" departLane="road2_0" departPos="4.10" departPosLat="0.00" departSpeed="2.93" departDelay="32.05" arrival="58.40" arrivalLane="-road1_0" arrivalPos="19.96" arrivalPosLat="0.00" arrivalSpeed="11.33" duration="17.20" routeLength="122.77" waitingTime="0.00" waitingCount="0" stopTime="0.00" timeLoss="5.01" rerouteNo="1" devices="tripinfo_vehicle_49 routing_vehicle_49 emissions_vehicle_49 battery_vehicle_49" vType="human" speedFactor="0.85" vaporized="">
        <emissions CO_abs="0" CO2_abs="0" HC_abs="0" PMx_abs="0" NOx_abs="0" fuel_abs="0" electricity_abs="52.123197"/>
    </tripinfo>
    <tripinfo id="vehicle_55" depart="30.00" departLane="road1_0" departPos="4.10" departPosLat="0.00" departSpeed="2.43" departDelay="11.08" arrival="60.40" arrivalLane="-road3_0" arrivalPos="19.96" arrivalPosLat="0.00" arrivalSpeed="12.43" duration="30.40" routeLength="206.37" waitingTime="0.00" waitingCount="0" stopTime="0.00" timeLoss="13.98" rerouteNo="1" devices="tripinfo_vehicle_55 routing_vehicle_55 emissions_vehicle_55 battery_vehicle_55" vType="human" speedFactor="1.00" vaporized="">
        <emissions CO_abs="0" CO2_abs="0" HC_abs="0" PMx_abs="0" NOx_abs="0" fuel_abs="0" electricity_abs="73.750790"/>
    </tripinfo>
    <tripinfo id="vehicle_58" depart="17.60" departLane="road0_0" departPos="4.10" departPosLat="0.00" departSpeed="2.40" departDelay="7.36" arrival="60.40" arrivalLane="-road1_0" arrivalPos="19.96" arrivalPosLat="0.00" arrivalSpeed="12.07" duration="42.80" routeLength="289.97" waitingTime="6.40" waitingCount="1" stopTime="0.00" timeLoss="20.25" rerouteNo="0" devices="tripinfo_vehicle_58 emissions_vehicle_58 battery_vehicle_58" vType="human" speedFactor="1.02" vaporized="">
        <emissions CO_abs="0" CO2_abs="0" HC_abs="0" PMx_abs="0" NOx_abs="0" fuel_abs="0" electricity_abs="96.900202"/>
    </tripinfo>
    <tripinfo id="rl_0" depart="32.00" departLane="road1_0" departPos="4.10" departPosLat="0.00" departSpeed="2.25" departDelay="12.48" arrival="62.80" arrivalLane="-road3_0" arrivalPos="19.96" arrivalPosLat="0.00" arrivalSpeed="11.50" duration="30.80" routeLength="206.37" waitingTime="0.00" waitingCount="0" stopTime="0.00" timeLoss="14.60" rerouteNo="1" devices="tripinfo_rl_0 routing_rl_0 emissions_rl_0 battery_rl_0 driverstaterl_0" vType="rlAnget" speedFactor="1.03" vaporized="">
        <emissions CO_abs="0" CO2_abs="0" HC_abs="0" PMx_abs="0" NOx_abs="0" fuel_abs="0" electricity_abs="68.055964"/>
    </tripinfo>
    <tripinfo id="vehicle_17" depart="42.80" departLane="road1_0" departPos="4.10" departPosLat="0.00" departSpeed="1.71" departDelay="17.91" arrival="63.60" arrivalLane="-road0_0" arrivalPos="19.96" arrivalPosLat="0.00" arrivalSpeed="12.66" duration="20.80" routeLength="122.77" waitingTime="0.00" waitingCount="0" stopTime="0.00" timeLoss="9.53" rerouteNo="1" devices="tripinfo_vehicle_17 routing_vehicle_17 emissions_vehicle_17 battery_vehicle_17" vType="human" speedFactor="0.94" vaporized="">
        <emissions CO_abs="0" CO2_abs="0" HC_abs="0" PMx_abs="0" NOx_abs="0" fuel_abs="0" electricity_abs="64.536695"/>
    </tripinfo>
    <tripinfo id="vehicle_76" depart="19.60" departLane="road3_0" departPos="4.10" departPosLat="0.00" departSpeed="2.85" departDelay="12.99" arrival="64.40" arrivalLane="-road2_0" arrivalPos="19.96" arrivalPosLat="0.00" arrivalSpeed="12.67" duration="44.80" routeLength="122.77" waitingTime="26.00" waitingCount="1" stopTime="0.00" timeLoss="34.46" rerouteNo="1" devices="tripinfo_vehicle_76 routing_vehicle_76 emissions_vehicle_76 battery_vehicle_76" vType="human" speedFactor="1.03" vaporized="">
        <emissions CO_abs="0" CO2_abs="0" HC_abs="0" PMx_abs="0" NOx_abs="0" fuel_abs="0" electricity_abs="65.874058"/>
    </tripinfo>
    <tripinfo id="vehicle_0" depart="20.00" departLane="road0_0" departPos="4.10" departPosLat="0.00" departSpeed="1.03" departDelay="8.60" arrival="64.80" arrivalLane="-road1_0" arrivalPos="19.96" arrivalPosLat="0.00" arrivalSpeed="12.79" duration="44.80" routeLength="289.97" waitingTime="6.00" waitingCount="1" stopTime="0.00" timeLoss="22.31" rerouteNo="0" devices="tripinfo_vehicle_0 emissions_vehicle_0 battery_vehicle_0" vType="human" speedFactor="1.06" vaporized="">
        <emissions CO_abs="0" CO2_abs="0" HC_abs="0" PMx_abs="0" NOx_abs="0" fuel_abs="0" electricity_abs="99.223515"/>
    </tripinfo>
    <tripinfo id="vehicle_32" depart="45.60" departLane="road1_0" departPos="4.10" departPosLat="0.00" departSpeed="1.35" departDelay="18.55" arrival="66.00" arrivalLane="-road0_0" arrivalPos="19.96" arrivalPosLat="0.00" arrivalSpeed="11.86" duration="20.40" routeLength="122.77" waitingTime="0.00" waitingCount="0" stopTime="0.00" timeLoss="9.74" rerouteNo="1" devices="tripinfo_vehicle_32 routing_vehicle_32 emissions_vehicle_32 battery_vehicle_32" vType="human" speedFactor="1.01" vaporized="">
        <emissions CO_abs="0" CO2_abs="0" HC_abs="0" PMx_abs="0" NOx_abs="0" fuel_abs="0" electricity_abs="58.208703"/>
    </tripinfo>
    <tripinfo id="vehicle_65" depart="28.00" departLane="road1_0" departPos="4.10" departPosLat="0.00" departSpeed="2.97" departDelay="10.52" arrival="67.60" arrivalLane="-road2_0" arrivalPos="19.96" arrivalPosLat="0.00" arrivalSpeed="11.37" duration="39.60" routeLength="289.97" waitingTime="0.00" waitingCount="0" stopTime="0.00" timeLoss="14.18" rerouteNo="1" devices="tripinfo_vehicle_65 routing_vehicle_65 emissions_vehicle_65 battery_vehicle_65" vType="human" speedFactor="0.88" vaporized="">
        <emissions CO_abs="0" CO2_abs="0" HC_abs="0" PMx_abs="0" NOx_abs="0" fuel_abs="0" electricity_abs="79.534303"/>
    </tripinfo>
    <tripinfo id="vehicle_7" depart="6.40" departLane="road2_0" departPos="4.10" departPosLat="0.00" departSpeed="2.20" departDelay="2.27" arrival="68.00" arrivalLane="-road3_0" arrivalPos="19.96" arrivalPosLat="0.00" arrivalSpeed="12.15" duration="61.60" routeLength="289.97" waitingTime="24.80" waitingCount="2" stopTime="0.00" timeLoss="36.45" rerouteNo="1" devices="tripinfo_vehicle_7 routing_vehicle_7 emissions_vehicle_7 battery_vehicle_7" vType="human" speedFactor="0.89" vaporized="">
        <emissions CO_abs="0" CO2_abs="0" HC_abs="0" PMx_abs="0" NOx_abs="0" fuel_abs="0" electricity_abs="90.867736"/>
    </tripinfo>
    <tripinfo id="vehicle_26" depart="21.60" departLane="road3_0" departPos="4.10" departPosLat="0.00" departSpeed="1.98" departDelay="14.03" arrival="69.60" arrivalLane="-road2_0" arrivalPos="19.96" arrivalPosLat="0.00" arrivalSpeed="12.71" duration="48.00" routeLength="122.77" waitingTime="25.20" waitingCount="1" stopTime="0.00" timeLoss="36.55" rerouteNo="1" devices="tripinfo_vehicle_26 routing_vehicle_26 emissions_vehicle_26 battery_vehicle_26" vType="human" speedFactor="0.92" vaporized="">
        <emissions CO_abs="0" CO2_abs="0" HC_abs="0" PMx_abs="0" NOx_abs="0" fuel_abs="0" electricity_abs="60.865342"/>
    </tripinfo>
    <tripinfo id="vehicle_11" depart="45.20" departLane="road2_0" departPos="4.10" departPosLat="0.00" departSpeed="2.73" departDelay="34.17" arrival="72.00" arrivalLane="-road1_0" arrivalPos="19.96" arrivalPosLat="0.00" arrivalSpeed="12.59" duration="26.80" routeLength="122.77" waitingTime="7.20" waitingCount="1" stopTime="0.00" timeLoss="16.28" rerouteNo="1" devices="tripinfo_vehicle_11 routing_vehicle_11 emissions_vehicle_11 battery_vehicle_11" vType="human" speedFactor="1.03" vaporized="">
        <emissions CO_abs="0" CO2_abs="0" HC_abs="0" PMx_abs="0" NOx_abs="0" fuel_abs="0" electricity_abs="64.734763"/>
    </tripinfo>
    <tripinfo id="vehicle_40" depart="36.40" departLane="road1_0" departPos="4.10" departPosLat="0.00" departSpeed="2.81" departDelay="12.94" arrival="72.00" arrivalLane="-road2_0" arrivalPos="19.96" arrivalPosLat="0.00" arrivalSpeed="11.24" duration="35.60" routeLength="289.97" waitingTime="0.00" waitingCount="0" stopTime="0.00" timeLoss="13.39" rerouteNo="1" devices="tripinfo_vehicle_40 routing_vehicle_40 emissions_vehicle_40 battery_vehicle_40" vType="human" speedFactor="1.03" vaporized="">
        <emissions CO_abs="0" CO2_abs="0" HC_abs="0" PMx_abs="0" NOx_abs="0" fuel_abs="0" electricity_abs="87.744311"/>
    </tripinfo>
    <tripinfo id="vehicle_70" depart="38.40" departLane="road2_0" departPos="4.10" departPosLat="0.00" departSpeed="1.27" departDelay="30.40" arrival="72.00" arrivalLane="-road3_0" arrivalPos="19.96" arrivalPosLat="0.00" arrivalSpeed="12.47" duration="33.60" routeLength="289.97" waitingTime="0.00" waitingCount="0" stopTime="0.00" timeLoss="11.13" rerouteNo="1" devices="tripinfo_vehicle_70 routing_vehicle_70 emissions_vehicle_70 battery_vehicle_70" vType="human" speedFactor="1.02" vaporized="">
        <emissions CO_abs="0" CO2_abs="0" HC_abs="0" PMx_abs="0" NOx_abs="0" fuel_abs="0" electricity_abs="100.313710"/>
    </tripinfo>
    <tripinfo id="vehicle_52" depart="52.00" departLane="road3_0" departPos="4.10" departPosLat="0.00" departSpeed="1.12" departDelay="43.32" arrival="74.00" arrivalLane="-road2_0" arrivalPos="19.96" arrivalPosLat="0.00" arrivalSpeed="12.38" duration="22.00" routeLength="122.77" waitingTime="0.00" waitingCount="0" stopTime="0.00" timeLoss="11.63" rerouteNo="1" devices="tripinfo_vehicle_52 routing_vehicle_52 emissions_vehicle_52 battery_vehicle_52" vType="human" speedFactor="1.02" vaporized="">