<?xml version="1.0" encoding="UTF-8"?>

<!-- generated on 2025-08-10 10:41:33 by Eclipse SUMO sumo Version v1_20_0+0085-e155ab8699b
<configuration xmlns:xsi="http://www.w3.org/2001/XMLSchema-instance" xsi:noNamespaceSchemaLocation="http://sumo.dlr.de/xsd/sumoConfiguration.xsd">

    <input>
        <net-file value="../networks/roundabout.net.xml"/>
        <route-files value="../networks/routes1.rou.xml"/>
    </input>

    <output>
        <output-prefix value="24-"/>
        <battery-output.precision value="4"/>
        <tripinfo-output value="../networks/output_data/output_default/tripinfo/tripinfo-output.xml"/>
        <collision-output value="../networks/output_data/output_default/collision/collision-output.xml"/>
    </output>

    <time>
        <begin value="0"/>
        <step-length value="0.4"/>
    </time>

    <processing>
        <step-method.ballistic value="true"/>
        <lateral-resolution value="3.2"/>
        <collision.action value="warn"/>
        <collision.check-junctions value="True"/>
        <collision.mingap-factor value="0"/>
        <time-to-teleport value="-1"/>
        <random-depart-offset value="5"/>
    </processing>

    <report>
        <no-warnings value="True"/>
        <no-step-log value="True"/>
    </report>

    <emissions>
        <device.emissions.probability value="1"/>
    </emissions>

    <battery>
        <device.battery.probability value="1"/>
    </battery>

    <traci_server>
        <remote-port value="58561"/>
    </traci_server>

    <gui_only>
        <quit-on-end value="True"/>
        <start value="True"/>
        <delay value="0"/>
    </gui_only>

</configuration>
-->

<tripinfos xmlns:xsi="http://www.w3.org/2001/XMLSchema-instance" xsi:noNamespaceSchemaLocation="http://sumo.dlr.de/xsd/tripinfo_file.xsd">
    <tripinfo id="vehicle_46" depart="0.40" departLane="road2_0" departPos="4.10" departPosLat="0.00" departSpeed="0.10" departDelay="0.00" arrival="16.00" arrivalLane="-road1_0" arrivalPos="19.96" arrivalPosLat="0.00" arrivalSpeed="12.57" duration="15.60" routeLength="122.77" waitingTime="0.00" waitingCount="0" stopTime="0.00" timeLoss="5.21" rerouteNo="1" devices="tripinfo_vehicle_46 routing_vehicle_46 emissions_vehicle_46 battery_vehicle_46" vType="human" speedFactor="1.00" vaporized="">
        <emissions CO_abs="0" CO2_abs="0" HC_abs="0" PMx_abs="0" NOx_abs="0" fuel_abs="0" electricity_abs="65.384073"/>
    </tripinfo>
    <tripinfo id="vehicle_68" depart="1.60" departLane="road1_0" departPos="4.10" departPosLat="0.00" departSpeed="5.28" departDelay="0.00" arrival="16.40" arrivalLane="-road0_0" arrivalPos="19.96" arrivalPosLat="0.00" arrivalSpeed="13.06" duration="14.80" routeLength="122.77" waitingTime="0.00" waitingCount="0" stopTime="0.00" timeLoss="4.78" rerouteNo="1" devices="tripinfo_vehicle_68 routing_vehicle_68 emissions_vehicle_68 battery_vehicle_68" vType="human" speedFactor="1.04" vaporized="">
        <emissions CO_abs="0" CO2_abs="0" HC_abs="0" PMx_abs="0" NOx_abs="0" fuel_abs="0" electricity_abs="64.067145"/>
    </tripinfo>
    <tripinfo id="vehicle_38" depart="5.60" departLane="road1_0" departPos="4.10" departPosLat="0.00" departSpeed="4.51" departDelay="0.00" arrival="22.00" arrivalLane="-road0_0" arrivalPos="19.96" arrivalPosLat="0.00" arrivalSpeed="12.47" duration="16.40" routeLength="122.77" waitingTime="0.00" waitingCount="0" stopTime="0.00" timeLoss="6.29" rerouteNo="1" devices="tripinfo_vehicle_38 routing_vehicle_38 emissions_vehicle_38 battery_vehicle_38" vType="human" speedFactor="1.10" vaporized="">
        <emissions CO_abs="0" CO2_abs="0" HC_abs="0" PMx_abs="0" NOx_abs="0" fuel_abs="0" electricity_abs="57.722838"/>
    </tripinfo>
    <tripinfo id="vehicle_17" depart="0.00" departLane="road1_0" departPos="4.10" departPosLat="0.00" departSpeed="6.01" departDelay="0.00" arrival="22.40" arrivalLane="-road3_0" arrivalPos="19.96" arrivalPosLat="0.00" arrivalSpeed="11.21" duration="22.40" routeLength="206.37" waitingTime="0.00" waitingCount="0" stopTime="0.00" timeLoss="4.95" rerouteNo="1" devices="tripinfo_vehicle_17 routing_vehicle_17 emissions_vehicle_17 battery_vehicle_17" vType="human" speedFactor="0.94" vaporized="">
        <emissions CO_abs="0" CO2_abs="0" HC_abs="0" PMx_abs="0" NOx_abs="0" fuel_abs="0" electricity_abs="64.998473"/>
    </tripinfo>
    <tripinfo id="vehicle_74" depart="3.20" departLane="road0_0" departPos="4.10" departPosLat="0.00" departSpeed="4.69" departDelay="0.00" arrival="25.20" arrivalLane="-road2_0" arrivalPos="19.96" arrivalPosLat="0.00" arrivalSpeed="12.23" duration="22.00" routeLength="206.37" waitingTime="0.00" waitingCount="0" stopTime="0.00" timeLoss="5.00" rerouteNo="0" devices="tripinfo_vehicle_74 emissions_vehicle_74 battery_vehicle_74" vType="human" speedFactor="0.96" vaporized="">
        <emissions CO_abs="0" CO2_abs="0" HC_abs="0" PMx_abs="0" NOx_abs="0" fuel_abs="0" electricity_abs="77.022360"/>
    </tripinfo>
    <tripinfo id="vehicle_52" depart="5.20" departLane="road2_0" departPos="4.10" departPosLat="0.00" departSpeed="5.91" departDelay="0.00" arrival="27.20" arrivalLane="-road0_0" arrivalPos="19.96" arrivalPosLat="0.00" arrivalSpeed="11.14" duration="22.00" routeLength="206.37" waitingTime="0.00" waitingCount="0" stopTime="0.00" timeLoss="5.75" rerouteNo="1" devices="tripinfo_vehicle_52 routing_vehicle_52 emissions_vehicle_52 battery_vehicle_52" vType="human" speedFactor="1.02" vaporized="">
        <emissions CO_abs="0" CO2_abs="0" HC_abs="0" PMx_abs="0" NOx_abs="0" fuel_abs="0" electricity_abs="65.381004"/>
    </tripinfo>
    <tripinfo id="vehicle_69" depart="4.80" departLane="road1_0" departPos="4.10" departPosLat="0.00" departSpeed="7.38" departDelay="0.00" arrival="27.20" arrivalLane="-road3_0" arrivalPos="19.96" arrivalPosLat="0.00" arrivalSpeed="13.66" duration="22.40" routeLength="206.37" waitingTime="0.00" waitingCount="0" stopTime="0.00" timeLoss="6.02" rerouteNo="1" devices="tripinfo_vehicle_69 routing_vehicle_69 emissions_vehicle_69 battery_vehicle_69" vType="human" speedFactor="1.02" vaporized="">
        <emissions CO_abs="0" CO2_abs="0" HC_abs="0" PMx_abs="0" NOx_abs="0" fuel_abs="0" electricity_abs="77.514547"/>
    </tripinfo>
    <tripinfo id="rl_0" depart="2.00" departLane="road0_0" departPos="4.10" departPosLat="0.00" departSpeed="5.98" departDelay="0.00" arrival="29.20" arrivalLane="-road1_0" arrivalPos="19.96" arrivalPosLat="0.00" arrivalSpeed="13.56" duration="27.20" routeLength="289.97" waitingTime="0.00" waitingCount="0" stopTime="0.00" timeLoss="4.88" rerouteNo="0" devices="tripinfo_rl_0 emissions_rl_0 battery_rl_0 driverstaterl_0" vType="rlAnget" speedFactor="1.03" vaporized="">
        <emissions CO_abs="0" CO2_abs="0" HC_abs="0" PMx_abs="0" NOx_abs="0" fuel_abs="0" electricity_abs="106.163632"/>
    </tripinfo>
    <tripinfo id="vehicle_44" depart="3.20" departLane="road3_0" departPos="4.10" departPosLat="0.00" departSpeed="9.75" departDelay="0.00" arrival="31.20" arrivalLane="-road0_0" arrivalPos="19.96" arrivalPosLat="0.00" arrivalSpeed="12.54" duration="28.00" routeLength="289.97" waitingTime="0.00" waitingCount="0" stopTime="0.00" timeLoss="5.59" rerouteNo="1" devices="tripinfo_vehicle_44 routing_vehicle_44 emissions_vehicle_44 battery_vehicle_44" vType="human" speedFactor="1.04" vaporized="">
        <emissions CO_abs="0" CO2_abs="0" HC_abs="0" PMx_abs="0" NOx_abs="0" fuel_abs="0" electricity_abs="81.789731"/>
    </tripinfo>
    <tripinfo id="vehicle_62" depart="3.20" departLane="road2_0" departPos="4.10" departPosLat="0.00" departSpeed="6.54" departDelay="0.00" arrival="31.20" arrivalLane="-road3_0" arrivalPos="19.96" arrivalPosLat="0.00" arrivalSpeed="12.54" duration="28.00" routeLength="289.97" waitingTime="0.00" waitingCount="0" stopTime="0.00" timeLoss="5.44" rerouteNo="1" devices="tripinfo_vehicle_62 routing_vehicle_62 emissions_vehicle_62 battery_vehicle_62" vType="human" speedFactor="1.02" vaporized="">
        <emissions CO_abs="0" CO2_abs="0" HC_abs="0" PMx_abs="0" NOx_abs="0" fuel_abs="0" electricity_abs="94.383990"/>
    </tripinfo>
    <tripinfo id="vehicle_12" depart="7.60" departLane="road1_0" departPos="4.10" departPosLat="0.00" departSpeed="0.18" departDelay="1.20" arrival="32.80" arrivalLane="-road3_0" arrivalPos="19.96" arrivalPosLat="0.00" arrivalSpeed="13.03" duration="25.20" routeLength="206.37" waitingTime="0.00" waitingCount="0" stopTime="0.00" timeLoss="8.74" rerouteNo="1" devices="tripinfo_vehicle_12 routing_vehicle_12 emissions_vehicle_12 battery_vehicle_12" vType="human" speedFactor="1.05" vaporized="">
        <emissions CO_abs="0" CO2_abs="0" HC_abs="0" PMx_abs="0" NOx_abs="0" fuel_abs="0" electricity_abs="82.888284"/>
    </tripinfo>
    <tripinfo id="vehicle_30" depart="12.40" departLane="road2_0" departPos="4.10" departPosLat="0.00" departSpeed="1.21" departDelay="4.80" arrival="35.20" arrivalLane="-road1_0" arrivalPos="19.96" arrivalPosLat="0.00" arrivalSpeed="12.59" duration="22.80" routeLength="122.77" waitingTime="2.80" waitingCount="1" stopTime="0.00" timeLoss="12.96" rerouteNo="1" devices="tripinfo_vehicle_30 routing_vehicle_30 emissions_vehicle_30 battery_vehicle_30" vType="human" speedFactor="1.18" vaporized="">
        <emissions CO_abs="0" CO2_abs="0" HC_abs="0" PMx_abs="0" NOx_abs="0" fuel_abs="0" electricity_abs="68.623260"/>
    </tripinfo>
    <tripinfo id="vehicle_48" depart="11.60" departLane="road3_0" departPos="4.10" departPosLat="0.00" departSpeed="4.23" departDelay="0.00" arrival="37.20" arrivalLane="-road2_0" arrivalPos="19.96" arrivalPosLat="0.00" arrivalSpeed="11.87" duration="25.60" routeLength="122.77" waitingTime="6.00" waitingCount="1" stopTime="0.00" timeLoss="13.97" rerouteNo="1" devices="tripinfo_vehicle_48 routing_vehicle_48 emissions_vehicle_48 battery_vehicle_48" vType="human" speedFactor="0.88" vaporized="">
        <emissions CO_abs="0" CO2_abs="0" HC_abs="0" PMx_abs="0" NOx_abs="0" fuel_abs="0" electricity_abs="54.094559"/>
    </tripinfo>
    <tripinfo id="vehicle_5" depart="6.40" departLane="road0_0" departPos="4.10" departPosLat="0.00" departSpeed="2.19" departDelay="2.80" arrival="37.60" arrivalLane="-road3_0" arrivalPos="19.96" arrivalPosLat="0.00" arrivalSpeed="10.99" duration="31.20" routeLength="122.77" waitingTime="9.20" waitingCount="1" stopTime="0.00" timeLoss="18.52" rerouteNo="0" devices="tripinfo_vehicle_5 emissions_vehicle_5 battery_vehicle_5" vType="human" speedFactor="0.83" vaporized="">
        <emissions CO_abs="0" CO2_abs="0" HC_abs="0" PMx_abs="0" NOx_abs="0" fuel_abs="0" electricity_abs="49.958464"/>
    </tripinfo>
    <tripinfo id="vehicle_55" depart="8.00" departLane="road2_0" departPos="4.10" departPosLat="0.00" departSpeed="0.44" departDelay="1.60" arrival="39.20" arrivalLane="-road0_0" arrivalPos="19.96" arrivalPosLat="0.00" arrivalSpeed="11.53" duration="31.20" routeLength="206.37" waitingTime="5.60" waitingCount="1" stopTime="0.00" timeLoss="14.71" rerouteNo="1" devices="tripinfo_vehicle_55 routing_vehicle_55 emissions_vehicle_55 battery_vehicle_55" vType="human" speedFactor="1.00" vaporized="">
        <emissions CO_abs="0" CO2_abs="0" HC_abs="0" PMx_abs="0" NOx_abs="0" fuel_abs="0" electricity_abs="79.857151"/>
    </tripinfo>
    <tripinfo id="vehicle_39" depart="6.40" departLane="road2_0" departPos="4.10" departPosLat="0.00" departSpeed="4.17" departDelay="0.80" arrival="40.00" arrivalLane="-road3_0" arrivalPos="19.96" arrivalPosLat="0.00" arrivalSpeed="11.43" duration="33.60" routeLength="289.97" waitingTime="0.00" waitingCount="0" stopTime="0.00" timeLoss="8.99" rerouteNo="1" devices="tripinfo_vehicle_39 routing_vehicle_39 emissions_vehicle_39 battery_vehicle_39" vType="human" speedFactor="0.90" vaporized="">
        <emissions CO_abs="0" CO2_abs="0" HC_abs="0" PMx_abs="0" NOx_abs="0" fuel_abs="0" electricity_abs="82.631428"/>
    </tripinfo>
    <tripinfo id="vehicle_77" depart="4.40" departLane="road0_0" departPos="4.10" departPosLat="0.00" departSpeed="1.51" departDelay="1.20" arrival="40.00" arrivalLane="-road1_0" arrivalPos="19.96" arrivalPosLat="0.00" arrivalSpeed="12.59" duration="35.60" routeLength="289.97" waitingTime="0.00" waitingCount="0" stopTime="0.00" timeLoss="12.64" rerouteNo="0" devices="tripinfo_vehicle_77 emissions_vehicle_77 battery_vehicle_77" vType="human" speedFactor="0.98" vaporized="">
        <emissions CO_abs="0" CO2_abs="0" HC_abs="0" PMx_abs="0" NOx_abs="0" fuel_abs="0" electricity_abs="98.429020"/>
    </tripinfo>
    <tripinfo id="vehicle_36" depart="8.80" departLane="road0_0" departPos="4.10" departPosLat="0.00" departSpeed="1.91" departDelay="2.00" arrival="42.00" arrivalLane="-road3_0" arrivalPos="19.96" arrivalPosLat="0.00" arrivalSpeed="11.32" duration="33.20" routeLength="122.77" waitingTime="7.60" waitingCount="1" stopTime="0.00" timeLoss="22.60" rerouteNo="0" devices="tripinfo_vehicle_36 emissions_vehicle_36 battery_vehicle_36" vType="human" speedFactor="0.97" vaporized="">
        <emissions CO_abs="0" CO2_abs="0" HC_abs="0" PMx_abs="0" NOx_abs="0" fuel_abs="0" electricity_abs="50.362049"/>
    </tripinfo>
    <tripinfo id="vehicle_56" depart="24.00" departLane="road3_0" departPos="4.10" departPosLat="0.00" departSpeed="1.09" departDelay="11.20" arrival="42.40" arrivalLane="-road2_0" arrivalPos="19.96" arrivalPosLat="0.00" arrivalSpeed="11.21" duration="18.40" routeLength="122.77" waitingTime="0.00" waitingCount="0" stopTime="0.00" timeLoss="6.75" rerouteNo="1" devices="tripinfo_vehicle_56 routing_vehicle_56 emissions_vehicle_56 battery_vehicle_56" vType="human" speedFactor="0.90" vaporized="">
        <emissions CO_abs="0" CO2_abs="0" HC_abs="0" PMx_abs="0" NOx_abs="0" fuel_abs="0" electricity_abs="52.826535"/>
    </tripinfo>
    <tripinfo id="vehicle_42" depart="22.00" departLane="road2_0" departPos="4.10" departPosLat="0.00" departSpeed="1.34" departDelay="14.40" arrival="44.80" arrivalLane="-road0_0" arrivalPos="19.96" arrivalPosLat="0.00" arrivalSpeed="12.88" duration="22.80" routeLength="206.37" waitingTime="0.00" waitingCount="0" stopTime="0.00" timeLoss="6.53" rerouteNo="1" devices="tripinfo_vehicle_42 routing_vehicle_42 emissions_vehicle_42 battery_vehicle_42" vType="human" speedFactor="1.09" vaporized="">
        <emissions CO_abs="0" CO2_abs="0" HC_abs="0" PMx_abs="0" NOx_abs="0" fuel_abs="0" electricity_abs="90.257522"/>
    </tripinfo>
    <tripinfo id="vehicle_3" depart="25.20" departLane="road0_0" departPos="4.10" departPosLat="0.00" departSpeed="1.54" departDelay="14.00" arrival="46.40" arrivalLane="-road3_0" arrivalPos="19.96" arrivalPosLat="0.00" arrivalSpeed="12.39" duration="21.20" routeLength="122.77" waitingTime="0.00" waitingCount="0" stopTime="0.00" timeLoss="10.72" rerouteNo="0" devices="tripinfo_vehicle_3 emissions_vehicle_3 battery_vehicle_3" vType="human" speedFactor="1.08" vaporized="">
        <emissions CO_abs="0" CO2_abs="0" HC_abs="0" PMx_abs="0" NOx_abs="0" fuel_abs="0" electricity_abs="58.276572"/>
    </tripinfo>
    <tripinfo id="vehicle_34" depart="10.00" departLane="road3_0" departPos="4.10" departPosLat="0.00" departSpeed="2.13" departDelay="0.00" arrival="48.00" arrivalLane="-road0_0" arrivalPos="19.96" arrivalPosLat="0.00" arrivalSpeed="11.57" duration="38.00" routeLength="289.97" waitingTime="6.80" waitingCount="1" stopTime="0.00" timeLoss="15.47" rerouteNo="1" devices="tripinfo_vehicle_34 routing_vehicle_34 emissions_vehicle_34 battery_vehicle_34" vType="human" speedFactor="0.99" vaporized="">
        <emissions CO_abs="0" CO2_abs="0" HC_abs="0" PMx_abs="0" NOx_abs="0" fuel_abs="0" electricity_abs="96.689707"/>
    </tripinfo>
    <tripinfo id="vehicle_50" depart="13.20" departLane="road3_0" departPos="4.10" departPosLat="0.00" departSpeed="1.53" departDelay="1.60" arrival="48.80" arrivalLane="-road1_0" arrivalPos="19.96" arrivalPosLat="0.00" arrivalSpeed="11.47" duration="35.60" routeLength="206.37" waitingTime="5.20" waitingCount="1" stopTime="0.00" timeLoss="16.49" rerouteNo="1" devices="tripinfo_vehicle_50 routing_vehicle_50 emissions_vehicle_50 battery_vehicle_50" vType="human" speedFactor="0.85" vaporized="">
        <emissions CO_abs="0" CO2_abs="0" HC_abs="0" PMx_abs="0" NOx_abs="0" fuel_abs="0" electricity_abs="69.607096"/>
    </tripinfo>
    <tripinfo id="vehicle_24" depart="28.00" departLane="road0_0" departPos="4.10" departPosLat="0.00" departSpeed="1.66" departDelay="16.80" arrival="49.20" arrivalLane="-road3_0" arrivalPos="19.96" arrivalPosLat="0.00" arrivalSpeed="10.66" duration="21.20" routeLength="122.77" waitingTime="0.00" waitingCount="0" stopTime="0.00" timeLoss="8.62" rerouteNo="0" devices="tripinfo_vehicle_24 emissions_vehicle_24 battery_vehicle_24" vType="human" speedFactor="0.83" vaporized="">
        <emissions CO_abs="0" CO2_abs="0" HC_abs="0" PMx_abs="0" NOx_abs="0" fuel_abs="0" electricity_abs="44.741814"/>
    </tripinfo>
    <tripinfo id="vehicle_11" depart="33.20" departLane="road3_0" departPos="4.10" departPosLat="0.00" departSpeed="2.83" departDelay="13.60" arrival="50.40" arrivalLane="-road2_0" arrivalPos="19.96" arrivalPosLat="0.00" arrivalSpeed="12.75" duration="17.20" routeLength="122.77" waitingTime="0.00" waitingCount="0" stopTime="0.00" timeLoss="6.44" rerouteNo="1" devices="tripinfo_vehicle_11 routing_vehicle_11 emissions_vehicle_11 battery_vehicle_11" vType="human" speedFactor="1.03" vaporized="">
        <emissions CO_abs="0" CO2_abs="0" HC_abs="0" PMx_abs="0" NOx_abs="0" fuel_abs="0" electricity_abs="61.278821"/>
    </tripinfo>
    <tripinfo id="vehicle_73" depart="32.40" departLane="road0_0" departPos="4.10" departPosLat="0.00" departSpeed="2.80" departDelay="17.60" arrival="51.20" arrivalLane="-road3_0" arrivalPos="19.96" arrivalPosLat="0.00" arrivalSpeed="12.51" duration="18.80" routeLength="122.77" waitingTime="0.00" waitingCount="0" stopTime="0.00" timeLoss="8.49" rerouteNo="0" devices="tripinfo_vehicle_73 emissions_vehicle_73 battery_vehicle_73" vType="human" speedFactor="1.06" vaporized="">
        <emissions CO_abs="0" CO2_abs="0" HC_abs="0" PMx_abs="0" NOx_abs="0" fuel_abs="0" electricity_abs="57.313943"/>
    </tripinfo>
    <tripinfo id="vehicle_1" depart="10.00" departLane="road1_0" departPos="4.10" departPosLat="0.00" departSpeed="3.58" departDelay="3.20" arrival="52.00" arrivalLane="-road0_0" arrivalPos="19.96" arrivalPosLat="0.00" arrivalSpeed="11.57" duration="42.00" routeLength="122.77" waitingTime="22.40" waitingCount="1" stopTime="0.00" timeLoss="30.97" rerouteNo="1" devices="tripinfo_vehicle_1 routing_vehicle_1 emissions_vehicle_1 battery_vehicle_1" vType="human" speedFactor="0.94" vaporized="">
        <emissions CO_abs="0" CO2_abs="0" HC_abs="0" PMx_abs="0" NOx_abs="0" fuel_abs="0" electricity_abs="54.536838"/>
    </tripinfo>
    <tripinfo id="vehicle_54" depart="26.80" departLane="road3_0" departPos="4.10" departPosLat="0.00" departSpeed="3.21" departDelay="13.60" arrival="52.80" arrivalLane="-road1_0" arrivalPos="19.96" arrivalPosLat="0.00" arrivalSpeed="11.59" duration="26.00" routeLength="206.37" waitingTime="0.00" waitingCount="0" stopTime="0.00" timeLoss="9.65" rerouteNo="1" devices="tripinfo_vehicle_54 routing_vehicle_54 emissions_vehicle_54 battery_vehicle_54" vType="human" speedFactor="1.00" vaporized="">
        <emissions CO_abs="0" CO2_abs="0" HC_abs="0" PMx_abs="0" NOx_abs="0" fuel_abs="0" electricity_abs="68.959994"/>
    </tripinfo>
    <tripinfo id="vehicle_58" depart="12.00" departLane="road0_0" departPos="4.10" departPosLat="0.00" departSpeed="1.04" departDelay="4.00" arrival="53.20" arrivalLane="-road2_0" arrivalPos="19.96" arrivalPosLat="0.00" arrivalSpeed="12.03" duration="41.20" routeLength="206.37" waitingTime="6.80" waitingCount="1" stopTime="0.00" timeLoss="24.69" rerouteNo="0" devices="tripinfo_vehicle_58 emissions_vehicle_58 battery_vehicle_58" vType="human" speedFactor="1.02" vaporized="">
        <emissions CO_abs="0" CO2_abs="0" HC_abs="0" PMx_abs="0" NOx_abs="0" fuel_abs="0" electricity_abs="71.203111"/>
    </tripinfo>
    <tripinfo id="vehicle_47" depart="10.40" departLane="road2_0" departPos="4.10" departPosLat="0.00" departSpeed="2.72" departDelay="3.20" arrival="54.00" arrivalLane="-road3_0" arrivalPos="19.96" arrivalPosLat="0.00" arrivalSpeed="11.79" duration="43.60" routeLength="289.97" waitingTime="4.80" waitingCount="1" stopTime="0.00" timeLoss="18.79" rerouteNo="1" devices="tripinfo_vehicle_47 routing_vehicle_47 emissions_vehicle_47 battery_vehicle_47" vType="human" speedFactor="0.90" vaporized="">
        <emissions CO_abs="0" CO2_abs="0" HC_abs="0" PMx_abs="0" NOx_abs="0" fuel_abs="0" electricity_abs="87.124553"/>
    </tripinfo>
    <tripinfo id="vehicle_78" depart="11.60" departLane="road1_0" departPos="4.10" departPosLat="0.00" departSpeed="3.03" departDelay="2.40" arrival="54.40" arrivalLane="-road0_0" arrivalPos="19.96" arrivalPosLat="0.00" arrivalSpeed="12.11" duration="42.80" routeLength="122.77" waitingTime="21.60" waitingCount="1" stopTime="0.00" timeLoss="32.60" rerouteNo="1" devices="tripinfo_vehicle_78 routing_vehicle_78 emissions_vehicle_78 battery_vehicle_78" vType="human" speedFactor="1.01" vaporized="">
        <emissions CO_abs="0" CO2_abs="0" HC_abs="0" PMx_abs="0" NOx_abs="0" fuel_abs="0" electricity_abs="57.531818"/>
    </tripinfo>
    <tripinfo id="vehicle_41" depart="37.20" departLane="road3_0" departPos="4.10" departPosLat="0.00" departSpeed="2.95" departDelay="13.20" arrival="57.60" arrivalLane="-road2_0" arrivalPos="19.96" arrivalPosLat="0.00" arrivalSpeed="11.92" duration="20.40" routeLength="122.77" waitingTime="0.00" waitingCount="0" stopTime="0.00" timeLoss="9.50" rerouteNo="1" devices="tripinfo_vehicle_41 routing_vehicle_41 emissions_vehicle_41 battery_vehicle_41" vType="human" speedFactor="0.96" vaporized="">
        <emissions CO_abs="0" CO2_abs="0" HC_abs="0" PMx_abs="0" NOx_abs="0" fuel_abs="0" electricity_abs="52.971338"/>
    </tripinfo>
    <tripinfo id="vehicle_59" depart="24.80" departLane="road2_0" departPos="4.10" departPosLat="0.00" departSpeed="3.20" departDelay="16.40" arrival="59.20" arrivalLane="-road3_0" arrivalPos="19.96" arrivalPosLat="0.00" arrivalSpeed="11.51" duration="34.40" routeLength="289.97" waitingTime="0.00" waitingCount="0" stopTime="0.00" timeLoss="11.28" rerouteNo="1" devices="tripinfo_vehicle_59 routing_vehicle_59 emissions_vehicle_59 battery_vehicle_59" vType="human" speedFactor="0.97" vaporized="">
        <emissions CO_abs="0" CO2_abs="0" HC_abs="0" PMx_abs="0" NOx_abs="0" fuel_abs="0" electricity_abs="88.626484"/>
    </tripinfo>
    <tripinfo id="vehicle_33" depart="39.20" departLane="road3_0" departPos="4.10" departPosLat="0.00" departSpeed="1.18" departDelay="14.80" arrival="59.60" arrivalLane="-road2_0" arrivalPos="19.96" arrivalPosLat="0.00" arrivalSpeed="12.12" duration="20.40" routeLength="122.77" waitingTime="0.00" waitingCount="0" stopTime="0.00" timeLoss="10.32" rerouteNo="1" devices="tripinfo_vehicle_33 routing_vehicle_33 emissions_vehicle_33 battery_vehicle_33" vType="human" speedFactor="1.17" vaporized="">
        <emissions CO_abs="0" CO2_abs="0" HC_abs="0" PMx_abs="0" NOx_abs="0" fuel_abs="0" electricity_abs="58.170710"/>
    </tripinfo>
    <tripinfo id="vehicle_49" depart="40.80" departLane="road1_0" departPos="4.10" departPosLat="0.00" departSpeed="0.87" departDelay="28.80" arrival="60.00" arrivalLane="-road0_0" arrivalPos="19.96" arrivalPosLat="0.00" arrivalSpeed="10.42" duration="19.20" routeLength="122.77" waitingTime="0.00" waitingCount="0" stopTime="0.00" timeLoss="6.64" rerouteNo="1" devices="tripinfo_vehicle_49 routing_vehicle_49 emissions_vehicle_49 battery_vehicle_49" vType="human" speedFactor="0.85" vaporized="">
        <emissions CO_abs="0" CO2_abs="0" HC_abs="0" PMx_abs="0" NOx_abs="0" fuel_abs="0" electricity_abs="48.079699"/>
    </tripinfo>
    <tripinfo id="vehicle_19" depart="28.80" departLane="road3_0" departPos="4.10" departPosLat="0.00" departSpeed="2.68" departDelay="15.20" arrival="61.60" arrivalLane="-road0_0" arrivalPos="19.96" arrivalPosLat="0.00" arrivalSpeed="13.59" duration="32.80" routeLength="289.97" waitingTime="0.00" waitingCount="0" stopTime="0.00" timeLoss="10.61" rerouteNo="1" devices="tripinfo_vehicle_19 routing_vehicle_19 emissions_vehicle_19 battery_vehicle_19" vType="human" speedFactor="1.16" vaporized="">
        <emissions CO_abs="0" CO2_abs="0" HC_abs="0" PMx_abs="0" NOx_abs="0" fuel_abs="0" electricity_abs="106.123990"/>
    </tripinfo>
    <tripinfo id="vehicle_29" depart="39.20" departLane="road0_0" departPos="4.10" departPosLat="0.00" departSpeed="3.82" departDelay="22.40" arrival="61.60" arrivalLane="-road3_0" arrivalPos="19.96" arrivalPosLat="0.00" arrivalSpeed="11.51" duration="22.40" routeLength="122.77" waitingTime="0.00" waitingCount="0" stopTime="0.00" timeLoss="11.42" rerouteNo="0" devices="tripinfo_vehicle_29 emissions_vehicle_29 battery_vehicle_29" vType="human" speedFactor="0.93" vaporized="">
        <emissions CO_abs="0" CO2_abs="0" HC_abs="0" PMx_abs="0" NOx_abs="0" fuel_abs="0" electricity_abs="46.584767"/>
    </tripinfo>
    <tripinfo id="vehicle_61" depart="30.40" departLane="road0_0" departPos="4.10" departPosLat="0.00" departSpeed="1.66" departDelay="18.80" arrival="62.00" arrivalLane="-road1_0" arrivalPos="19.96" arrivalPosLat="0.00" arrivalSpeed="11.87" duration="31.60" routeLength="289.97" waitingTime="0.00" waitingCount="0" stopTime="0.00" timeLoss="9.35" rerouteNo="0" devices="tripinfo_vehicle_61 emissions_vehicle_61 battery_vehicle_61" vType="human" speedFactor="1.12" vaporized="">
        <emissions CO_abs="0" CO2_abs="0" HC_abs="0" PMx_abs="0" NOx_abs="0" fuel_abs="0" electricity_abs="96.684259"/>
    </tripinfo>
    <tripinfo id="vehicle_13" depart="34.80" departLane="road0_0" departPos="4.10" departPosLat="0.00" departSpeed="3.42" departDelay="19.20" arrival="64.00" arrivalLane="-road2_0" arrivalPos="19.96" arrivalPosLat="0.00" arrivalSpeed="12.85" duration="29.20" routeLength="206.37" waitingTime="0.00" waitingCount="0" stopTime="0.00" timeLoss="13.14" rerouteNo="0" devices="tripinfo_vehicle_13 emissions_vehicle_13 battery_vehicle_13" vType="human" speedFactor="1.12" vaporized="">
        <emissions CO_abs="0" CO2_abs="0" HC_abs="0" PMx_abs="0" NOx_abs="0" fuel_abs="0" electricity_abs="74.011361"/>
    </tripinfo>
    <tripinfo id="vehicle_25" depart="26.80" departLane="road2_0" departPos="4.10" departPosLat="0.00" departSpeed="3.40" departDelay="16.00" arrival="64.80" arrivalLane="-road3_0" arrivalPos="19.96" arrivalPosLat="0.00" arrivalSpeed="11.28" duration="38.00" routeLength="289.97" waitingTime="0.00" waitingCount="0" stopTime="0.00" timeLoss="12.41" rerouteNo="1" devices="tripinfo_vehicle_25 routing_vehicle_25 emissions_vehicle_25 battery_vehicle_25" vType="human" speedFactor="0.87" vaporized="">
        <emissions CO_abs="0" CO2_abs="0" HC_abs="0" PMx_abs="0" NOx_abs="0" fuel_abs="0" electricity_abs="81.991236"/>
    </tripinfo>
    <tripinfo id="vehicle_57" depart="30.80" departLane="road3_0" departPos="4.10" departPosLat="0.00" departSpeed="2.54" departDelay="14.00" arrival="65.20" arrivalLane="-road0_0" arrivalPos="19.96" arrivalPosLat="0.00" arrivalSpeed="12.52" duration="34.40" routeLength="289.97" waitingTime="0.00" waitingCount="0" stopTime="0.00" timeLoss="12.44" rerouteNo="1" devices="tripinfo_vehicle_57 routing_vehicle_57 emissions_vehicle_57 battery_vehicle_57" vType="human" speedFactor="1.14" vaporized="">
        <emissions CO_abs="0" CO2_abs="0" HC_abs="0" PMx_abs="0" NOx_abs="0" fuel_abs="0" electricity_abs="95.883132"/>
    </tripinfo>
    <tripinfo id="vehicle_26" depart="36.80" departLane="road0_0" departPos="4.10" departPosLat="0.00" departSpeed="2.35" departDelay="20.00" arrival="68.40" arrivalLane="-road2_0" arrivalPos="19.96" arrivalPosLat="0.00" arrivalSpeed="11.39" duration="31.60" routeLength="206.37" waitingTime="0.00" waitingCount="0" stopTime="0.00" timeLoss="13.86" rerouteNo="0" devices="tripinfo_vehicle_26 emissions_vehicle_26 battery_vehicle_26" vType="human" speedFactor="0.92" vaporized="">
        <emissions CO_abs="0" CO2_abs="0" HC_abs="0" PMx_abs="0" NOx_abs="0" fuel_abs="0" electricity_abs="64.818836"/>
    </tripinfo>
    <tripinfo id="vehicle_10" depart="49.60" departLane="road3_0" departPos="4.10" departPosLat="0.00" departSpeed="2.51" departDelay="21.20" arrival="70.80" arrivalLane="-road2_0" arrivalPos="19.96" arrivalPosLat="0.00" arrivalSpeed="10.85" duration="21.20" routeLength="122.77" waitingTime="0.00" waitingCount="0" stopTime="0.00" timeLoss="11.03" rerouteNo="1" devices="tripinfo_vehicle_10 routing_vehicle_10 emissions_vehicle_10 battery_vehicle_10" vType="human" speedFactor="1.09" vaporized="">
        <emissions CO_abs="0" CO2_abs="0" HC_abs="0" PMx_abs="0" NOx_abs="0" fuel_abs="0" electricity_abs="47.474706"/>
    </tripinfo>
    <tripinfo id="vehicle_37" depart="34.40" departLane="road2_0" departPos="4.10" departPosLat="0.00" departSpeed="1.09" departDelay="18.40" arrival="72.40" arrivalLane="-road1_0" arrivalPos="19.96" arrivalPosLat="0.00" arrivalSpeed="12.37" duration="38.00" routeLength="122.77" waitingTime="15.20" waitingCount="2" stopTime="0.00" timeLoss="27.85" rerouteNo="1" devices="tripinfo_vehicle_37 routing_vehicle_37 emissions_vehicle_37 battery_vehicle_37" vType="human" speedFactor="1.18" vaporized="">
        <emissions CO_abs="0" CO2_abs="0" HC_abs="0" PMx_abs="0" NOx_abs="0" fuel_abs="0" electricity_abs="68.554904"/>
    </tripinfo>
    <tripinfo id="vehicle_40" depart="35.20" departLane="road3_0" departPos="4.10" departPosLat="0.00" departSpeed="3.03" departDelay="13.60" arrival="72.40" arrivalLane="-road0_0" arrivalPos="19.96" arrivalPosLat="0.00" arrivalSpeed="12.49" duration="37.20" routeLength="289.97" waitingTime="0.00" waitingCount="0" stopTime="0.00" timeLoss="14.71" rerouteNo="1" devices="tripinfo_vehicle_40 routing_vehicle_40 emissions_vehicle_40 battery_vehicle_40" vType="human" speedFactor="1.03" vaporized="">