<?xml version="1.0" encoding="UTF-8"?>

<!-- generated on 2025-08-10 10:41:37 by Eclipse SUMO sumo Version v1_20_0+0085-e155ab8699b
<configuration xmlns:xsi="http://www.w3.org/2001/XMLSchema-instance" xsi:noNamespaceSchemaLocation="http://sumo.dlr.de/xsd/sumoConfiguration.xsd">

    <input>
        <net-file value="../networks/roundabout.net.xml"/>
        <route-files value="../networks/routes1.rou.xml"/>
    </input>

    <output>
        <output-prefix value="27-"/>
        <battery-output.precision value="4"/>
        <tripinfo-output value="../networks/output_data/output_default/tripinfo/tripinfo-output.xml"/>
        <collision-output value="../networks/output_data/output_default/collision/collision-output.xml"/>
    </output>

    <time>
        <begin value="0"/>
        <step-length value="0.4"/>
    </time>

    <processing>
        <step-method.ballistic value="true"/>
        <lateral-resolution value="3.2"/>
        <collision.action value="warn"/>
        <collision.check-junctions value="True"/>
        <collision.mingap-factor value="0"/>
        <time-to-teleport value="-1"/>
        <random-depart-offset value="5"/>
    </processing>

    <report>
        <no-warnings value="True"/>
        <no-step-log value="True"/>
    </report>

    <emissions>
        <device.emissions.probability value="1"/>
    </emissions>

    <battery>
        <device.battery.probability value="1"/>
    </battery>

    <traci_server>
        <remote-port value="59971"/>
    </traci_server>

    <gui_only>
        <quit-on-end value="True"/>
        <start value="True"/>
        <delay value="0"/>
    </gui_only>

</configuration>
-->

<tripinfos xmlns:xsi="http://www.w3.org/2001/XMLSchema-instance" xsi:noNamespaceSchemaLocation="http://sumo.dlr.de/xsd/tripinfo_file.xsd">
    <tripinfo id="vehicle_21" depart="1.20" departLane="road0_0" departPos="4.10" departPosLat="0.00" departSpeed="6.33" departDelay="0.00" arrival="16.40" arrivalLane="-road3_0" arrivalPos="19.96" arrivalPosLat="0.00" arrivalSpeed="11.67" duration="15.20" routeLength="122.77" waitingTime="0.00" waitingCount="0" stopTime="0.00" timeLoss="4.64" rerouteNo="0" devices="tripinfo_vehicle_21 emissions_vehicle_21 battery_vehicle_21" vType="human" speedFactor="1.01" vaporized="">
        <emissions CO_abs="0" CO2_abs="0" HC_abs="0" PMx_abs="0" NOx_abs="0" fuel_abs="0" electricity_abs="49.112432"/>
    </tripinfo>
    <tripinfo id="vehicle_2" depart="2.40" departLane="road0_0" departPos="4.10" departPosLat="0.00" departSpeed="4.70" departDelay="0.40" arrival="18.40" arrivalLane="-road3_0" arrivalPos="19.96" arrivalPosLat="0.00" arrivalSpeed="13.66" duration="16.00" routeLength="122.77" waitingTime="0.00" waitingCount="0" stopTime="0.00" timeLoss="5.59" rerouteNo="0" devices="tripinfo_vehicle_2 emissions_vehicle_2 battery_vehicle_2" vType="human" speedFactor="1.01" vaporized="">
        <emissions CO_abs="0" CO2_abs="0" HC_abs="0" PMx_abs="0" NOx_abs="0" fuel_abs="0" electricity_abs="65.932851"/>
    </tripinfo>
    <tripinfo id="vehicle_49" depart="1.60" departLane="road1_0" departPos="4.10" departPosLat="0.00" departSpeed="7.01" departDelay="0.00" arrival="18.40" arrivalLane="-road0_0" arrivalPos="19.96" arrivalPosLat="0.00" arrivalSpeed="11.89" duration="16.80" routeLength="122.77" waitingTime="0.00" waitingCount="0" stopTime="0.00" timeLoss="4.63" rerouteNo="1" devices="tripinfo_vehicle_49 routing_vehicle_49 emissions_vehicle_49 battery_vehicle_49" vType="human" speedFactor="0.85" vaporized="">
        <emissions CO_abs="0" CO2_abs="0" HC_abs="0" PMx_abs="0" NOx_abs="0" fuel_abs="0" electricity_abs="44.858398"/>
    </tripinfo>
    <tripinfo id="vehicle_74" depart="4.80" departLane="road3_0" departPos="4.10" departPosLat="0.00" departSpeed="3.53" departDelay="0.00" arrival="20.40" arrivalLane="-road2_0" arrivalPos="19.96" arrivalPosLat="0.00" arrivalSpeed="12.23" duration="15.60" routeLength="122.77" waitingTime="0.00" waitingCount="0" stopTime="0.00" timeLoss="4.49" rerouteNo="1" devices="tripinfo_vehicle_74 routing_vehicle_74 emissions_vehicle_74 battery_vehicle_74" vType="human" speedFactor="0.96" vaporized="">
        <emissions CO_abs="0" CO2_abs="0" HC_abs="0" PMx_abs="0" NOx_abs="0" fuel_abs="0" electricity_abs="58.480608"/>
    </tripinfo>
    <tripinfo id="vehicle_72" depart="2.40" departLane="road1_0" departPos="4.10" departPosLat="0.00" departSpeed="5.28" departDelay="0.40" arrival="21.20" arrivalLane="-road0_0" arrivalPos="19.96" arrivalPosLat="0.00" arrivalSpeed="11.57" duration="18.80" routeLength="122.77" waitingTime="0.00" waitingCount="0" stopTime="0.00" timeLoss="7.79" rerouteNo="1" devices="tripinfo_vehicle_72 routing_vehicle_72 emissions_vehicle_72 battery_vehicle_72" vType="human" speedFactor="0.94" vaporized="">
        <emissions CO_abs="0" CO2_abs="0" HC_abs="0" PMx_abs="0" NOx_abs="0" fuel_abs="0" electricity_abs="46.710522"/>
    </tripinfo>
    <tripinfo id="vehicle_39" depart="6.00" departLane="road3_0" departPos="4.10" departPosLat="0.00" departSpeed="0.62" departDelay="0.80" arrival="22.80" arrivalLane="-road2_0" arrivalPos="19.96" arrivalPosLat="0.00" arrivalSpeed="12.20" duration="16.80" routeLength="122.77" waitingTime="0.00" waitingCount="0" stopTime="0.00" timeLoss="5.48" rerouteNo="1" devices="tripinfo_vehicle_39 routing_vehicle_39 emissions_vehicle_39 battery_vehicle_39" vType="human" speedFactor="0.90" vaporized="">
        <emissions CO_abs="0" CO2_abs="0" HC_abs="0" PMx_abs="0" NOx_abs="0" fuel_abs="0" electricity_abs="60.101996"/>
    </tripinfo>
    <tripinfo id="vehicle_30" depart="6.80" departLane="road1_0" departPos="4.10" departPosLat="0.00" departSpeed="2.76" departDelay="2.80" arrival="24.00" arrivalLane="-road0_0" arrivalPos="19.96" arrivalPosLat="0.00" arrivalSpeed="12.41" duration="17.20" routeLength="122.77" waitingTime="0.00" waitingCount="0" stopTime="0.00" timeLoss="6.99" rerouteNo="1" devices="tripinfo_vehicle_30 routing_vehicle_30 emissions_vehicle_30 battery_vehicle_30" vType="human" speedFactor="1.18" vaporized="">
        <emissions CO_abs="0" CO2_abs="0" HC_abs="0" PMx_abs="0" NOx_abs="0" fuel_abs="0" electricity_abs="60.770485"/>
    </tripinfo>
    <tripinfo id="vehicle_36" depart="10.00" departLane="road0_0" departPos="4.10" departPosLat="0.00" departSpeed="3.55" departDelay="2.80" arrival="26.80" arrivalLane="-road3_0" arrivalPos="19.96" arrivalPosLat="0.00" arrivalSpeed="12.28" duration="16.80" routeLength="122.77" waitingTime="0.00" waitingCount="0" stopTime="0.00" timeLoss="6.34" rerouteNo="0" devices="tripinfo_vehicle_36 emissions_vehicle_36 battery_vehicle_36" vType="human" speedFactor="0.97" vaporized="">
        <emissions CO_abs="0" CO2_abs="0" HC_abs="0" PMx_abs="0" NOx_abs="0" fuel_abs="0" electricity_abs="57.293855"/>
    </tripinfo>
    <tripinfo id="vehicle_69" depart="7.60" departLane="road2_0" departPos="4.10" departPosLat="0.00" departSpeed="2.64" departDelay="0.40" arrival="27.20" arrivalLane="-road1_0" arrivalPos="19.96" arrivalPosLat="0.00" arrivalSpeed="12.66" duration="19.60" routeLength="122.77" waitingTime="0.00" waitingCount="0" stopTime="0.00" timeLoss="9.09" rerouteNo="1" devices="tripinfo_vehicle_69 routing_vehicle_69 emissions_vehicle_69 battery_vehicle_69" vType="human" speedFactor="1.02" vaporized="">
        <emissions CO_abs="0" CO2_abs="0" HC_abs="0" PMx_abs="0" NOx_abs="0" fuel_abs="0" electricity_abs="62.978102"/>
    </tripinfo>
    <tripinfo id="vehicle_40" depart="7.60" departLane="road0_0" departPos="4.10" departPosLat="0.00" departSpeed="2.39" departDelay="1.20" arrival="31.20" arrivalLane="-road2_0" arrivalPos="19.96" arrivalPosLat="0.00" arrivalSpeed="11.95" duration="23.60" routeLength="206.37" waitingTime="0.00" waitingCount="0" stopTime="0.00" timeLoss="7.35" rerouteNo="0" devices="tripinfo_vehicle_40 emissions_vehicle_40 battery_vehicle_40" vType="human" speedFactor="1.03" vaporized="">
        <emissions CO_abs="0" CO2_abs="0" HC_abs="0" PMx_abs="0" NOx_abs="0" fuel_abs="0" electricity_abs="77.907122"/>
    </tripinfo>
    <tripinfo id="vehicle_29" depart="1.20" departLane="road3_0" departPos="4.10" departPosLat="0.00" departSpeed="0.10" departDelay="0.00" arrival="31.60" arrivalLane="-road0_0" arrivalPos="19.96" arrivalPosLat="0.00" arrivalSpeed="11.94" duration="30.40" routeLength="289.97" waitingTime="0.00" waitingCount="0" stopTime="0.00" timeLoss="6.25" rerouteNo="1" devices="tripinfo_vehicle_29 routing_vehicle_29 emissions_vehicle_29 battery_vehicle_29" vType="human" speedFactor="0.93" vaporized="">
        <emissions CO_abs="0" CO2_abs="0" HC_abs="0" PMx_abs="0" NOx_abs="0" fuel_abs="0" electricity_abs="97.121882"/>
    </tripinfo>
    <tripinfo id="vehicle_32" depart="14.80" departLane="road0_0" departPos="4.10" departPosLat="0.00" departSpeed="4.40" departDelay="0.00" arrival="31.60" arrivalLane="-road3_0" arrivalPos="19.96" arrivalPosLat="0.00" arrivalSpeed="11.94" duration="16.80" routeLength="122.77" waitingTime="0.00" waitingCount="0" stopTime="0.00" timeLoss="6.33" rerouteNo="0" devices="tripinfo_vehicle_32 emissions_vehicle_32 battery_vehicle_32" vType="human" speedFactor="1.01" vaporized="">
        <emissions CO_abs="0" CO2_abs="0" HC_abs="0" PMx_abs="0" NOx_abs="0" fuel_abs="0" electricity_abs="53.118838"/>
    </tripinfo>
    <tripinfo id="vehicle_14" depart="8.00" departLane="road3_0" departPos="4.10" departPosLat="0.00" departSpeed="3.14" departDelay="0.80" arrival="32.40" arrivalLane="-road1_0" arrivalPos="19.96" arrivalPosLat="0.00" arrivalSpeed="12.24" duration="24.40" routeLength="206.37" waitingTime="0.00" waitingCount="0" stopTime="0.00" timeLoss="7.97" rerouteNo="1" devices="tripinfo_vehicle_14 routing_vehicle_14 emissions_vehicle_14 battery_vehicle_14" vType="human" speedFactor="0.99" vaporized="">
        <emissions CO_abs="0" CO2_abs="0" HC_abs="0" PMx_abs="0" NOx_abs="0" fuel_abs="0" electricity_abs="77.587716"/>
    </tripinfo>
    <tripinfo id="vehicle_25" depart="2.80" departLane="road2_0" departPos="4.10" departPosLat="0.00" departSpeed="2.33" departDelay="0.00" arrival="34.80" arrivalLane="-road3_0" arrivalPos="19.96" arrivalPosLat="0.00" arrivalSpeed="11.81" duration="32.00" routeLength="289.97" waitingTime="0.00" waitingCount="0" stopTime="0.00" timeLoss="6.43" rerouteNo="1" devices="tripinfo_vehicle_25 routing_vehicle_25 emissions_vehicle_25 battery_vehicle_25" vType="human" speedFactor="0.87" vaporized="">
        <emissions CO_abs="0" CO2_abs="0" HC_abs="0" PMx_abs="0" NOx_abs="0" fuel_abs="0" electricity_abs="88.590997"/>
    </tripinfo>
    <tripinfo id="vehicle_3" depart="3.60" departLane="road0_0" departPos="4.10" departPosLat="0.00" departSpeed="2.80" departDelay="0.80" arrival="35.20" arrivalLane="-road1_0" arrivalPos="19.96" arrivalPosLat="0.00" arrivalSpeed="12.26" duration="31.60" routeLength="289.97" waitingTime="0.00" waitingCount="0" stopTime="0.00" timeLoss="9.20" rerouteNo="0" devices="tripinfo_vehicle_3 emissions_vehicle_3 battery_vehicle_3" vType="human" speedFactor="1.08" vaporized="">
        <emissions CO_abs="0" CO2_abs="0" HC_abs="0" PMx_abs="0" NOx_abs="0" fuel_abs="0" electricity_abs="97.041887"/>
    </tripinfo>
    <tripinfo id="vehicle_6" depart="13.60" departLane="road0_0" departPos="4.10" departPosLat="0.00" departSpeed="3.46" departDelay="0.00" arrival="36.40" arrivalLane="-road2_0" arrivalPos="19.96" arrivalPosLat="0.00" arrivalSpeed="12.36" duration="22.80" routeLength="206.37" waitingTime="0.00" waitingCount="0" stopTime="0.00" timeLoss="6.59" rerouteNo="0" devices="tripinfo_vehicle_6 emissions_vehicle_6 battery_vehicle_6" vType="human" speedFactor="1.05" vaporized="">
        <emissions CO_abs="0" CO2_abs="0" HC_abs="0" PMx_abs="0" NOx_abs="0" fuel_abs="0" electricity_abs="78.265161"/>
    </tripinfo>
    <tripinfo id="vehicle_18" depart="14.00" departLane="road1_0" departPos="4.10" departPosLat="0.00" departSpeed="0.56" departDelay="7.60" arrival="37.20" arrivalLane="-road0_0" arrivalPos="19.96" arrivalPosLat="0.00" arrivalSpeed="11.64" duration="23.20" routeLength="122.77" waitingTime="1.20" waitingCount="2" stopTime="0.00" timeLoss="12.11" rerouteNo="1" devices="tripinfo_vehicle_18 routing_vehicle_18 emissions_vehicle_18 battery_vehicle_18" vType="human" speedFactor="0.94" vaporized="">
        <emissions CO_abs="0" CO2_abs="0" HC_abs="0" PMx_abs="0" NOx_abs="0" fuel_abs="0" electricity_abs="56.058777"/>
    </tripinfo>
    <tripinfo id="vehicle_48" depart="4.40" departLane="road2_0" departPos="4.10" departPosLat="0.00" departSpeed="4.06" departDelay="1.60" arrival="38.00" arrivalLane="-road3_0" arrivalPos="19.96" arrivalPosLat="0.00" arrivalSpeed="11.15" duration="33.60" routeLength="289.97" waitingTime="0.00" waitingCount="0" stopTime="0.00" timeLoss="8.22" rerouteNo="1" devices="tripinfo_vehicle_48 routing_vehicle_48 emissions_vehicle_48 battery_vehicle_48" vType="human" speedFactor="0.88" vaporized="">
        <emissions CO_abs="0" CO2_abs="0" HC_abs="0" PMx_abs="0" NOx_abs="0" fuel_abs="0" electricity_abs="79.880353"/>
    </tripinfo>
    <tripinfo id="vehicle_15" depart="5.60" departLane="road0_0" departPos="4.10" departPosLat="0.00" departSpeed="2.50" departDelay="1.20" arrival="38.40" arrivalLane="-road1_0" arrivalPos="19.96" arrivalPosLat="0.00" arrivalSpeed="12.11" duration="32.80" routeLength="289.97" waitingTime="0.00" waitingCount="0" stopTime="0.00" timeLoss="8.48" rerouteNo="0" devices="tripinfo_vehicle_15 emissions_vehicle_15 battery_vehicle_15" vType="human" speedFactor="0.93" vaporized="">
        <emissions CO_abs="0" CO2_abs="0" HC_abs="0" PMx_abs="0" NOx_abs="0" fuel_abs="0" electricity_abs="91.122295"/>
    </tripinfo>
    <tripinfo id="vehicle_5" depart="4.00" departLane="road1_0" departPos="4.10" departPosLat="0.00" departSpeed="1.26" departDelay="0.00" arrival="39.60" arrivalLane="-road2_0" arrivalPos="19.96" arrivalPosLat="0.00" arrivalSpeed="11.05" duration="35.60" routeLength="289.97" waitingTime="0.00" waitingCount="0" stopTime="0.00" timeLoss="8.62" rerouteNo="1" devices="tripinfo_vehicle_5 routing_vehicle_5 emissions_vehicle_5 battery_vehicle_5" vType="human" speedFactor="0.83" vaporized="">
        <emissions CO_abs="0" CO2_abs="0" HC_abs="0" PMx_abs="0" NOx_abs="0" fuel_abs="0" electricity_abs="80.693264"/>
    </tripinfo>
    <tripinfo id="vehicle_8" depart="11.20" departLane="road1_0" departPos="4.10" departPosLat="0.00" departSpeed="1.89" departDelay="4.80" arrival="42.40" arrivalLane="-road3_0" arrivalPos="19.96" arrivalPosLat="0.00" arrivalSpeed="11.91" duration="31.20" routeLength="206.37" waitingTime="0.00" waitingCount="0" stopTime="0.00" timeLoss="13.65" rerouteNo="1" devices="tripinfo_vehicle_8 routing_vehicle_8 emissions_vehicle_8 battery_vehicle_8" vType="human" speedFactor="0.94" vaporized="">
        <emissions CO_abs="0" CO2_abs="0" HC_abs="0" PMx_abs="0" NOx_abs="0" fuel_abs="0" electricity_abs="70.231116"/>
    </tripinfo>
    <tripinfo id="vehicle_13" depart="30.40" departLane="road2_0" departPos="4.10" departPosLat="0.00" departSpeed="3.24" departDelay="14.40" arrival="45.60" arrivalLane="-road1_0" arrivalPos="19.96" arrivalPosLat="0.00" arrivalSpeed="12.44" duration="15.20" routeLength="122.77" waitingTime="0.00" waitingCount="0" stopTime="0.00" timeLoss="5.24" rerouteNo="1" devices="tripinfo_vehicle_13 routing_vehicle_13 emissions_vehicle_13 battery_vehicle_13" vType="human" speedFactor="1.12" vaporized="">
        <emissions CO_abs="0" CO2_abs="0" HC_abs="0" PMx_abs="0" NOx_abs="0" fuel_abs="0" electricity_abs="62.520090"/>
    </tripinfo>
    <tripinfo id="rl_0" depart="10.00" departLane="road2_0" departPos="4.10" departPosLat="0.00" departSpeed="1.86" departDelay="2.80" arrival="46.00" arrivalLane="-road3_0" arrivalPos="19.96" arrivalPosLat="-0.00" arrivalSpeed="13.16" duration="36.00" routeLength="289.97" waitingTime="0.40" waitingCount="1" stopTime="0.00" timeLoss="13.36" rerouteNo="1" devices="tripinfo_rl_0 routing_rl_0 emissions_rl_0 battery_rl_0 driverstaterl_0" vType="rlAnget" speedFactor="1.03" vaporized="">
        <emissions CO_abs="0" CO2_abs="0" HC_abs="0" PMx_abs="0" NOx_abs="0" fuel_abs="0" electricity_abs="109.096299"/>
    </tripinfo>
    <tripinfo id="vehicle_7" depart="6.00" departLane="road2_0" departPos="4.10" departPosLat="0.00" departSpeed="4.45" departDelay="1.60" arrival="48.00" arrivalLane="-road3_0" arrivalPos="19.96" arrivalPosLat="0.00" arrivalSpeed="10.90" duration="42.00" routeLength="289.97" waitingTime="2.40" waitingCount="2" stopTime="0.00" timeLoss="17.28" rerouteNo="1" devices="tripinfo_vehicle_7 routing_vehicle_7 emissions_vehicle_7 battery_vehicle_7" vType="human" speedFactor="0.89" vaporized="">
        <emissions CO_abs="0" CO2_abs="0" HC_abs="0" PMx_abs="0" NOx_abs="0" fuel_abs="0" electricity_abs="74.323719"/>
    </tripinfo>
    <tripinfo id="vehicle_58" depart="17.20" departLane="road2_0" departPos="4.10" departPosLat="0.00" departSpeed="2.47" departDelay="3.20" arrival="48.00" arrivalLane="-road0_0" arrivalPos="19.96" arrivalPosLat="0.00" arrivalSpeed="12.48" duration="30.80" routeLength="206.37" waitingTime="2.80" waitingCount="1" stopTime="0.00" timeLoss="14.59" rerouteNo="1" devices="tripinfo_vehicle_58 routing_vehicle_58 emissions_vehicle_58 battery_vehicle_58" vType="human" speedFactor="1.02" vaporized="">
        <emissions CO_abs="0" CO2_abs="0" HC_abs="0" PMx_abs="0" NOx_abs="0" fuel_abs="0" electricity_abs="80.892251"/>
    </tripinfo>
    <tripinfo id="vehicle_47" depart="8.80" departLane="road1_0" departPos="4.10" departPosLat="0.00" departSpeed="0.61" departDelay="2.80" arrival="48.40" arrivalLane="-road2_0" arrivalPos="19.96" arrivalPosLat="0.00" arrivalSpeed="11.13" duration="39.60" routeLength="289.97" waitingTime="0.00" waitingCount="0" stopTime="0.00" timeLoss="14.85" rerouteNo="1" devices="tripinfo_vehicle_47 routing_vehicle_47 emissions_vehicle_47 battery_vehicle_47" vType="human" speedFactor="0.90" vaporized="">
        <emissions CO_abs="0" CO2_abs="0" HC_abs="0" PMx_abs="0" NOx_abs="0" fuel_abs="0" electricity_abs="83.635394"/>
    </tripinfo>
    <tripinfo id="vehicle_0" depart="27.60" departLane="road2_0" departPos="4.10" departPosLat="0.00" departSpeed="1.36" departDelay="11.60" arrival="50.80" arrivalLane="-road0_0" arrivalPos="19.96" arrivalPosLat="0.00" arrivalSpeed="12.69" duration="23.20" routeLength="206.37" waitingTime="0.00" waitingCount="0" stopTime="0.00" timeLoss="6.77" rerouteNo="1" devices="tripinfo_vehicle_0 routing_vehicle_0 emissions_vehicle_0 battery_vehicle_0" vType="human" speedFactor="1.06" vaporized="">
        <emissions CO_abs="0" CO2_abs="0" HC_abs="0" PMx_abs="0" NOx_abs="0" fuel_abs="0" electricity_abs="85.194110"/>
    </tripinfo>
    <tripinfo id="vehicle_79" depart="14.80" departLane="road3_0" departPos="4.10" departPosLat="0.00" departSpeed="1.91" departDelay="5.60" arrival="51.20" arrivalLane="-road1_0" arrivalPos="19.96" arrivalPosLat="0.00" arrivalSpeed="11.98" duration="36.40" routeLength="206.37" waitingTime="9.60" waitingCount="1" stopTime="0.00" timeLoss="20.37" rerouteNo="1" devices="tripinfo_vehicle_79 routing_vehicle_79 emissions_vehicle_79 battery_vehicle_79" vType="human" speedFactor="1.09" vaporized="">
        <emissions CO_abs="0" CO2_abs="0" HC_abs="0" PMx_abs="0" NOx_abs="0" fuel_abs="0" electricity_abs="80.527558"/>
    </tripinfo>
    <tripinfo id="vehicle_33" depart="25.60" departLane="road1_0" departPos="4.10" departPosLat="0.00" departSpeed="1.08" departDelay="17.20" arrival="52.40" arrivalLane="-road3_0" arrivalPos="19.96" arrivalPosLat="0.00" arrivalSpeed="12.45" duration="26.80" routeLength="206.37" waitingTime="0.00" waitingCount="0" stopTime="0.00" timeLoss="10.53" rerouteNo="1" devices="tripinfo_vehicle_33 routing_vehicle_33 emissions_vehicle_33 battery_vehicle_33" vType="human" speedFactor="1.17" vaporized="">
        <emissions CO_abs="0" CO2_abs="0" HC_abs="0" PMx_abs="0" NOx_abs="0" fuel_abs="0" electricity_abs="80.250856"/>
    </tripinfo>
    <tripinfo id="vehicle_71" depart="10.00" departLane="road3_0" departPos="4.10" departPosLat="0.00" departSpeed="2.56" departDelay="1.60" arrival="54.40" arrivalLane="-road0_0" arrivalPos="19.96" arrivalPosLat="0.00" arrivalSpeed="11.51" duration="44.40" routeLength="289.97" waitingTime="12.00" waitingCount="2" stopTime="0.00" timeLoss="21.57" rerouteNo="1" devices="tripinfo_vehicle_71 routing_vehicle_71 emissions_vehicle_71 battery_vehicle_71" vType="human" speedFactor="0.97" vaporized="">
        <emissions CO_abs="0" CO2_abs="0" HC_abs="0" PMx_abs="0" NOx_abs="0" fuel_abs="0" electricity_abs="95.588647"/>
    </tripinfo>
    <tripinfo id="vehicle_4" depart="14.40" departLane="road2_0" departPos="4.10" departPosLat="0.00" departSpeed="1.13" departDelay="4.00" arrival="54.80" arrivalLane="-road3_0" arrivalPos="19.96" arrivalPosLat="0.00" arrivalSpeed="11.57" duration="40.40" routeLength="289.97" waitingTime="4.40" waitingCount="1" stopTime="0.00" timeLoss="18.03" rerouteNo="1" devices="tripinfo_vehicle_4 routing_vehicle_4 emissions_vehicle_4 battery_vehicle_4" vType="human" speedFactor="1.03" vaporized="">
        <emissions CO_abs="0" CO2_abs="0" HC_abs="0" PMx_abs="0" NOx_abs="0" fuel_abs="0" electricity_abs="93.301129"/>
    </tripinfo>
    <tripinfo id="vehicle_42" depart="17.60" departLane="road1_0" departPos="4.10" departPosLat="0.00" departSpeed="0.84" departDelay="10.40" arrival="54.80" arrivalLane="-road2_0" arrivalPos="19.96" arrivalPosLat="0.00" arrivalSpeed="12.00" duration="37.20" routeLength="289.97" waitingTime="0.40" waitingCount="1" stopTime="0.00" timeLoss="14.97" rerouteNo="1" devices="tripinfo_vehicle_42 routing_vehicle_42 emissions_vehicle_42 battery_vehicle_42" vType="human" speedFactor="1.09" vaporized="">
        <emissions CO_abs="0" CO2_abs="0" HC_abs="0" PMx_abs="0" NOx_abs="0" fuel_abs="0" electricity_abs="97.279660"/>
    </tripinfo>
    <tripinfo id="vehicle_11" depart="19.60" departLane="road2_0" departPos="4.10" departPosLat="0.00" departSpeed="0.80" departDelay="4.00" arrival="56.80" arrivalLane="-road3_0" arrivalPos="19.96" arrivalPosLat="0.00" arrivalSpeed="12.48" duration="37.20" routeLength="289.97" waitingTime="2.40" waitingCount="1" stopTime="0.00" timeLoss="14.78" rerouteNo="1" devices="tripinfo_vehicle_11 routing_vehicle_11 emissions_vehicle_11 battery_vehicle_11" vType="human" speedFactor="1.03" vaporized="">
        <emissions CO_abs="0" CO2_abs="0" HC_abs="0" PMx_abs="0" NOx_abs="0" fuel_abs="0" electricity_abs="102.775834"/>
    </tripinfo>
    <tripinfo id="vehicle_20" depart="12.00" departLane="road3_0" departPos="4.10" departPosLat="0.00" departSpeed="0.23" departDelay="3.20" arrival="57.20" arrivalLane="-road0_0" arrivalPos="19.96" arrivalPosLat="0.00" arrivalSpeed="12.09" duration="45.20" routeLength="289.97" waitingTime="10.80" waitingCount="1" stopTime="0.00" timeLoss="22.55" rerouteNo="1" devices="tripinfo_vehicle_20 routing_vehicle_20 emissions_vehicle_20 battery_vehicle_20" vType="human" speedFactor="1.02" vaporized="">
        <emissions CO_abs="0" CO2_abs="0" HC_abs="0" PMx_abs="0" NOx_abs="0" fuel_abs="0" electricity_abs="100.597186"/>
    </tripinfo>
    <tripinfo id="vehicle_76" depart="20.40" departLane="road1_0" departPos="4.10" departPosLat="0.00" departSpeed="1.42" departDelay="12.40" arrival="58.00" arrivalLane="-road2_0" arrivalPos="19.96" arrivalPosLat="0.00" arrivalSpeed="12.83" duration="37.60" routeLength="289.97" waitingTime="0.00" waitingCount="0" stopTime="0.00" timeLoss="15.13" rerouteNo="1" devices="tripinfo_vehicle_76 routing_vehicle_76 emissions_vehicle_76 battery_vehicle_76" vType="human" speedFactor="1.03" vaporized="">
        <emissions CO_abs="0" CO2_abs="0" HC_abs="0" PMx_abs="0" NOx_abs="0" fuel_abs="0" electricity_abs="100.873125"/>
    </tripinfo>
    <tripinfo id="vehicle_66" depart="28.40" departLane="road1_0" departPos="4.10" departPosLat="0.00" departSpeed="2.45" departDelay="19.60" arrival="59.60" arrivalLane="-road3_0" arrivalPos="19.96" arrivalPosLat="0.00" arrivalSpeed="10.48" duration="31.20" routeLength="206.37" waitingTime="0.00" waitingCount="0" stopTime="0.00" timeLoss="13.38" rerouteNo="1" devices="tripinfo_vehicle_66 routing_vehicle_66 emissions_vehicle_66 battery_vehicle_66" vType="human" speedFactor="0.91" vaporized="">
        <emissions CO_abs="0" CO2_abs="0" HC_abs="0" PMx_abs="0" NOx_abs="0" fuel_abs="0" electricity_abs="59.905514"/>
    </tripinfo>
    <tripinfo id="vehicle_59" depart="20.40" departLane="road0_0" departPos="4.10" departPosLat="0.00" departSpeed="7.02" departDelay="0.00" arrival="62.00" arrivalLane="-road3_0" arrivalPos="19.96" arrivalPosLat="0.00" arrivalSpeed="11.66" duration="41.60" routeLength="122.77" waitingTime="17.60" waitingCount="2" stopTime="0.00" timeLoss="31.01" rerouteNo="0" devices="tripinfo_vehicle_59 emissions_vehicle_59 battery_vehicle_59" vType="human" speedFactor="0.97" vaporized="">
        <emissions CO_abs="0" CO2_abs="0" HC_abs="0" PMx_abs="0" NOx_abs="0" fuel_abs="0" electricity_abs="40.920020"/>
    </tripinfo>
    <tripinfo id="vehicle_75" depart="44.80" departLane="road2_0" departPos="4.10" departPosLat="0.00" departSpeed="0.99" departDelay="20.80" arrival="62.00" arrivalLane="-road1_0" arrivalPos="19.96" arrivalPosLat="0.00" arrivalSpeed="11.74" duration="17.20" routeLength="122.77" waitingTime="0.00" waitingCount="0" stopTime="0.00" timeLoss="6.57" rerouteNo="1" devices="tripinfo_vehicle_75 routing_vehicle_75 emissions_vehicle_75 battery_vehicle_75" vType="human" speedFactor="0.98" vaporized="">
        <emissions CO_abs="0" CO2_abs="0" HC_abs="0" PMx_abs="0" NOx_abs="0" fuel_abs="0" electricity_abs="58.912082"/>
    </tripinfo>
    <tripinfo id="vehicle_41" depart="32.40" departLane="road2_0" departPos="4.10" departPosLat="0.00" departSpeed="3.36" departDelay="16.40" arrival="62.80" arrivalLane="-road0_0" arrivalPos="19.96" arrivalPosLat="0.00" arrivalSpeed="11.92" duration="30.40" routeLength="206.37" waitingTime="4.40" waitingCount="1" stopTime="0.00" timeLoss="13.24" rerouteNo="1" devices="tripinfo_vehicle_41 routing_vehicle_41 emissions_vehicle_41 battery_vehicle_41" vType="human" speedFactor="0.96" vaporized="">
        <emissions CO_abs="0" CO2_abs="0" HC_abs="0" PMx_abs="0" NOx_abs="0" fuel_abs="0" electricity_abs="75.622279"/>
    </tripinfo>
    <tripinfo id="vehicle_12" depart="22.40" departLane="road0_0" departPos="4.10" departPosLat="0.00" departSpeed="4.86" departDelay="0.00" arrival="66.40" arrivalLane="-road2_0" arrivalPos="19.96" arrivalPosLat="0.00" arrivalSpeed="12.10" duration="44.00" routeLength="206.37" waitingTime="15.60" waitingCount="1" stopTime="0.00" timeLoss="27.49" rerouteNo="0" devices="tripinfo_vehicle_12 emissions_vehicle_12 battery_vehicle_12" vType="human" speedFactor="1.05" vaporized="">
        <emissions CO_abs="0" CO2_abs="0" HC_abs="0" PMx_abs="0" NOx_abs="0" fuel_abs="0" electricity_abs="71.365745"/>
    </tripinfo>
    <tripinfo id="vehicle_64" depart="36.80" departLane="road2_0" departPos="4.10" departPosLat="0.00" departSpeed="1.76" departDelay="14.40" arrival="66.80" arrivalLane="-road0_0" arrivalPos="19.96" arrivalPosLat="0.00" arrivalSpeed="12.04" duration="30.00" routeLength="206.37" waitingTime="2.00" waitingCount="1" stopTime="0.00" timeLoss="12.50" rerouteNo="1" devices="tripinfo_vehicle_64 routing_vehicle_64 emissions_vehicle_64 battery_vehicle_64" vType="human" speedFactor="0.94" vaporized="">
        <emissions CO_abs="0" CO2_abs="0" HC_abs="0" PMx_abs="0" NOx_abs="0" fuel_abs="0" electricity_abs="78.309745"/>
    </tripinfo>
    <tripinfo id="vehicle_17" depart="47.20" departLane="road0_0" departPos="4.10" departPosLat="0.00" departSpeed="0.41" departDelay="17.60" arrival="67.20" arrivalLane="-road3_0" arrivalPos="19.96" arrivalPosLat="0.00" arrivalSpeed="12.47" duration="20.00" routeLength="122.77" waitingTime="0.00" waitingCount="0" stopTime="0.00" timeLoss="8.88" rerouteNo="0" devices="tripinfo_vehicle_17 emissions_vehicle_17 battery_vehicle_17" vType="human" speedFactor="0.94" vaporized="">
        <emissions CO_abs="0" CO2_abs="0" HC_abs="0" PMx_abs="0" NOx_abs="0" fuel_abs="0" electricity_abs="57.022167"/>
    </tripinfo>
    <tripinfo id="vehicle_46" depart="33.20" departLane="road3_0" departPos="4.10" departPosLat="0.00" departSpeed="3.42" departDelay="22.80" arrival="70.80" arrivalLane="-road1_0" arrivalPos="19.96" arrivalPosLat="0.00" arrivalSpeed="12.46" duration="37.60" routeLength="206.37" waitingTime="10.00" waitingCount="1" stopTime="0.00" timeLoss="21.12" rerouteNo="1" devices="tripinfo_vehicle_46 routing_vehicle_46 emissions_vehicle_46 battery_vehicle_46" vType="human" speedFactor="1.00" vaporized="">
        <emissions CO_abs="0" CO2_abs="0" HC_abs="0" PMx_abs="0" NOx_abs="0" fuel_abs="0" electricity_abs="83.452974"/>
    </tripinfo>
    <tripinfo id="vehicle_54" depart="34.40" departLane="road2_0" departPos="4.10" departPosLat="0.00" departSpeed="3.09" departDelay="12.00" arrival="70.80" arrivalLane="-road3_0" arrivalPos="19.96" arrivalPosLat="0.00" arrivalSpeed="11.90" duration="36.40" routeLength="289.97" waitingTime="2.80" waitingCount="1" stopTime="0.00" timeLoss="13.82" rerouteNo="1" devices="tripinfo_vehicle_54 routing_vehicle_54 emissions_vehicle_54 battery_vehicle_54" vType="human" speedFactor="1.00" vaporized="">
        <emissions CO_abs="0" CO2_abs="0" HC_abs="0" PMx_abs="0" NOx_abs="0" fuel_abs="0" electricity_abs="97.714659"/>
    </tripinfo>
    <tripinfo id="vehicle_22" depart="44.80" departLane="road0_0" departPos="4.10" departPosLat="0.00" departSpeed="1.40" departDelay="18.40" arrival="72.80" arrivalLane="-road2_0" arrivalPos="19.96" arrivalPosLat="0.00" arrivalSpeed="12.62" duration="28.00" routeLength="206.37" waitingTime="0.00" waitingCount="0" stopTime="0.00" timeLoss="11.31" rerouteNo="0" devices="tripinfo_vehicle_22 emissions_vehicle_22 battery_vehicle_22" vType="human" speedFactor="0.97" vaporized="">