<?xml version="1.0" encoding="UTF-8"?>

<!-- generated on 2024-11-01 21:40:28 by Eclipse SUMO sumo Version v1_20_0+0085-e155ab8699b
<configuration xmlns:xsi="http://www.w3.org/2001/XMLSchema-instance" xsi:noNamespaceSchemaLocation="http://sumo.dlr.de/xsd/sumoConfiguration.xsd">

    <input>
        <net-file value="../networks/roundabout.net.xml"/>
        <route-files value="../networks/routes1.rou.xml"/>
    </input>

    <output>
        <output-prefix value="362-"/>
        <battery-output.precision value="4"/>
        <tripinfo-output value="../networks/output_data/output_default/tripinfo/tripinfo-output.xml"/>
        <collision-output value="../networks/output_data/output_default/collision/collision-output.xml"/>
    </output>

    <time>
        <begin value="0"/>
        <step-length value="0.4"/>
    </time>

    <processing>
        <step-method.ballistic value="true"/>
        <lateral-resolution value="3.2"/>
        <collision.action value="warn"/>
        <collision.check-junctions value="True"/>
        <collision.mingap-factor value="0"/>
        <time-to-teleport value="-1"/>
        <random-depart-offset value="5"/>
    </processing>

    <report>
        <no-warnings value="True"/>
        <no-step-log value="True"/>
    </report>

    <emissions>
        <device.emissions.probability value="1"/>
    </emissions>

    <battery>
        <device.battery.probability value="1"/>
    </battery>

    <traci_server>
        <remote-port value="57077"/>
    </traci_server>

    <gui_only>
        <quit-on-end value="True"/>
        <start value="True"/>
    </gui_only>

</configuration>
-->

<tripinfos xmlns:xsi="http://www.w3.org/2001/XMLSchema-instance" xsi:noNamespaceSchemaLocation="http://sumo.dlr.de/xsd/tripinfo_file.xsd">
    <tripinfo id="vehicle_35" depart="1.20" departLane="road1_0" departPos="4.10" departPosLat="0.00" departSpeed="5.98" departDelay="0.18" arrival="15.20" arrivalLane="-road0_0" arrivalPos="19.96" arrivalPosLat="0.00" arrivalSpeed="12.99" duration="14.00" routeLength="122.77" waitingTime="0.00" waitingCount="0" stopTime="0.00" timeLoss="3.78" rerouteNo="1" devices="tripinfo_vehicle_35 routing_vehicle_35 emissions_vehicle_35 battery_vehicle_35" vType="human" speedFactor="1.02" vaporized="">
        <emissions CO_abs="0" CO2_abs="0" HC_abs="0" PMx_abs="0" NOx_abs="0" fuel_abs="0" electricity_abs="60.813390"/>
    </tripinfo>
    <tripinfo id="vehicle_6" depart="0.80" departLane="road0_0" departPos="4.10" departPosLat="0.00" departSpeed="0.10" departDelay="0.11" arrival="16.00" arrivalLane="-road3_0" arrivalPos="19.96" arrivalPosLat="0.00" arrivalSpeed="11.33" duration="15.20" routeLength="122.77" waitingTime="0.00" waitingCount="0" stopTime="0.00" timeLoss="5.00" rerouteNo="0" devices="tripinfo_vehicle_6 emissions_vehicle_6 battery_vehicle_6" vType="human" speedFactor="1.05" vaporized="">
        <emissions CO_abs="0" CO2_abs="0" HC_abs="0" PMx_abs="0" NOx_abs="0" fuel_abs="0" electricity_abs="58.452148"/>
    </tripinfo>
    <tripinfo id="vehicle_79" depart="6.40" departLane="road0_0" departPos="4.10" departPosLat="0.00" departSpeed="3.35" departDelay="2.70" arrival="22.80" arrivalLane="-road3_0" arrivalPos="19.96" arrivalPosLat="0.00" arrivalSpeed="13.11" duration="16.40" routeLength="122.77" waitingTime="0.00" waitingCount="0" stopTime="0.00" timeLoss="6.14" rerouteNo="0" devices="tripinfo_vehicle_79 emissions_vehicle_79 battery_vehicle_79" vType="human" speedFactor="1.09" vaporized="">
        <emissions CO_abs="0" CO2_abs="0" HC_abs="0" PMx_abs="0" NOx_abs="0" fuel_abs="0" electricity_abs="66.593810"/>
    </tripinfo>
    <tripinfo id="vehicle_22" depart="0.80" departLane="road2_0" departPos="4.10" departPosLat="0.00" departSpeed="8.03" departDelay="0.10" arrival="23.20" arrivalLane="-road0_0" arrivalPos="19.96" arrivalPosLat="0.00" arrivalSpeed="13.28" duration="22.40" routeLength="206.37" waitingTime="0.00" waitingCount="0" stopTime="0.00" timeLoss="5.62" rerouteNo="1" devices="tripinfo_vehicle_22 routing_vehicle_22 emissions_vehicle_22 battery_vehicle_22" vType="human" speedFactor="0.97" vaporized="">
        <emissions CO_abs="0" CO2_abs="0" HC_abs="0" PMx_abs="0" NOx_abs="0" fuel_abs="0" electricity_abs="70.407710"/>
    </tripinfo>
    <tripinfo id="vehicle_69" depart="7.20" departLane="road3_0" departPos="4.10" departPosLat="0.00" departSpeed="4.11" departDelay="2.33" arrival="23.60" arrivalLane="-road2_0" arrivalPos="19.96" arrivalPosLat="0.00" arrivalSpeed="12.72" duration="16.40" routeLength="122.77" waitingTime="0.00" waitingCount="0" stopTime="0.00" timeLoss="6.01" rerouteNo="1" devices="tripinfo_vehicle_69 routing_vehicle_69 emissions_vehicle_69 battery_vehicle_69" vType="human" speedFactor="1.02" vaporized="">
        <emissions CO_abs="0" CO2_abs="0" HC_abs="0" PMx_abs="0" NOx_abs="0" fuel_abs="0" electricity_abs="60.671894"/>
    </tripinfo>
    <tripinfo id="vehicle_34" depart="1.60" departLane="road2_0" departPos="4.10" departPosLat="0.00" departSpeed="5.16" departDelay="0.68" arrival="25.60" arrivalLane="-road0_0" arrivalPos="19.96" arrivalPosLat="0.00" arrivalSpeed="12.28" duration="24.00" routeLength="206.37" waitingTime="0.00" waitingCount="0" stopTime="0.00" timeLoss="7.57" rerouteNo="1" devices="tripinfo_vehicle_34 routing_vehicle_34 emissions_vehicle_34 battery_vehicle_34" vType="human" speedFactor="0.99" vaporized="">
        <emissions CO_abs="0" CO2_abs="0" HC_abs="0" PMx_abs="0" NOx_abs="0" fuel_abs="0" electricity_abs="72.447157"/>
    </tripinfo>
    <tripinfo id="vehicle_29" depart="2.40" departLane="road1_0" departPos="4.10" departPosLat="0.00" departSpeed="1.43" departDelay="0.74" arrival="26.40" arrivalLane="-road3_0" arrivalPos="19.96" arrivalPosLat="0.00" arrivalSpeed="11.69" duration="24.00" routeLength="206.37" waitingTime="0.00" waitingCount="0" stopTime="0.00" timeLoss="6.41" rerouteNo="1" devices="tripinfo_vehicle_29 routing_vehicle_29 emissions_vehicle_29 battery_vehicle_29" vType="human" speedFactor="0.93" vaporized="">
        <emissions CO_abs="0" CO2_abs="0" HC_abs="0" PMx_abs="0" NOx_abs="0" fuel_abs="0" electricity_abs="74.953243"/>
    </tripinfo>
    <tripinfo id="vehicle_17" depart="6.40" departLane="road1_0" departPos="4.10" departPosLat="0.00" departSpeed="3.30" departDelay="1.92" arrival="28.40" arrivalLane="-road0_0" arrivalPos="19.96" arrivalPosLat="0.00" arrivalSpeed="11.43" duration="22.00" routeLength="122.77" waitingTime="1.20" waitingCount="1" stopTime="0.00" timeLoss="11.05" rerouteNo="1" devices="tripinfo_vehicle_17 routing_vehicle_17 emissions_vehicle_17 battery_vehicle_17" vType="human" speedFactor="0.94" vaporized="">
        <emissions CO_abs="0" CO2_abs="0" HC_abs="0" PMx_abs="0" NOx_abs="0" fuel_abs="0" electricity_abs="51.534497"/>
    </tripinfo>
    <tripinfo id="vehicle_23" depart="4.80" departLane="road0_0" departPos="4.10" departPosLat="0.00" departSpeed="3.73" departDelay="2.68" arrival="28.80" arrivalLane="-road2_0" arrivalPos="19.96" arrivalPosLat="0.00" arrivalSpeed="12.05" duration="24.00" routeLength="206.37" waitingTime="0.00" waitingCount="0" stopTime="0.00" timeLoss="5.60" rerouteNo="0" devices="tripinfo_vehicle_23 emissions_vehicle_23 battery_vehicle_23" vType="human" speedFactor="0.89" vaporized="">
        <emissions CO_abs="0" CO2_abs="0" HC_abs="0" PMx_abs="0" NOx_abs="0" fuel_abs="0" electricity_abs="73.364163"/>
    </tripinfo>
    <tripinfo id="vehicle_72" depart="4.40" departLane="road1_0" departPos="4.10" departPosLat="0.00" departSpeed="3.52" departDelay="1.75" arrival="28.80" arrivalLane="-road3_0" arrivalPos="19.96" arrivalPosLat="0.00" arrivalSpeed="12.30" duration="24.40" routeLength="206.37" waitingTime="0.00" waitingCount="0" stopTime="0.00" timeLoss="6.98" rerouteNo="1" devices="tripinfo_vehicle_72 routing_vehicle_72 emissions_vehicle_72 battery_vehicle_72" vType="human" speedFactor="0.94" vaporized="">
        <emissions CO_abs="0" CO2_abs="0" HC_abs="0" PMx_abs="0" NOx_abs="0" fuel_abs="0" electricity_abs="76.555659"/>
    </tripinfo>
    <tripinfo id="vehicle_5" depart="5.20" departLane="road3_0" departPos="4.10" departPosLat="0.00" departSpeed="0.37" departDelay="0.03" arrival="30.00" arrivalLane="-road1_0" arrivalPos="19.96" arrivalPosLat="0.00" arrivalSpeed="11.32" duration="24.80" routeLength="206.37" waitingTime="0.00" waitingCount="0" stopTime="0.00" timeLoss="5.27" rerouteNo="1" devices="tripinfo_vehicle_5 routing_vehicle_5 emissions_vehicle_5 battery_vehicle_5" vType="human" speedFactor="0.83" vaporized="">
        <emissions CO_abs="0" CO2_abs="0" HC_abs="0" PMx_abs="0" NOx_abs="0" fuel_abs="0" electricity_abs="70.385702"/>
    </tripinfo>
    <tripinfo id="vehicle_52" depart="0.40" departLane="road3_0" departPos="4.10" departPosLat="0.00" departSpeed="6.33" departDelay="0.28" arrival="30.40" arrivalLane="-road0_0" arrivalPos="19.96" arrivalPosLat="0.00" arrivalSpeed="11.62" duration="30.00" routeLength="289.97" waitingTime="0.00" waitingCount="0" stopTime="0.00" timeLoss="7.97" rerouteNo="1" devices="tripinfo_vehicle_52 routing_vehicle_52 emissions_vehicle_52 battery_vehicle_52" vType="human" speedFactor="1.02" vaporized="">
        <emissions CO_abs="0" CO2_abs="0" HC_abs="0" PMx_abs="0" NOx_abs="0" fuel_abs="0" electricity_abs="87.261320"/>
    </tripinfo>
    <tripinfo id="vehicle_20" depart="2.80" departLane="road2_0" departPos="4.10" departPosLat="0.00" departSpeed="1.98" departDelay="0.45" arrival="32.40" arrivalLane="-road3_0" arrivalPos="19.96" arrivalPosLat="0.00" arrivalSpeed="13.02" duration="29.60" routeLength="289.97" waitingTime="0.00" waitingCount="0" stopTime="0.00" timeLoss="7.27" rerouteNo="1" devices="tripinfo_vehicle_20 routing_vehicle_20 emissions_vehicle_20 battery_vehicle_20" vType="human" speedFactor="1.02" vaporized="">
        <emissions CO_abs="0" CO2_abs="0" HC_abs="0" PMx_abs="0" NOx_abs="0" fuel_abs="0" electricity_abs="108.458307"/>
    </tripinfo>
    <tripinfo id="vehicle_15" depart="2.80" departLane="road0_0" departPos="4.10" departPosLat="0.00" departSpeed="0.15" departDelay="1.58" arrival="34.40" arrivalLane="-road1_0" arrivalPos="19.96" arrivalPosLat="0.00" arrivalSpeed="11.57" duration="31.60" routeLength="289.97" waitingTime="0.00" waitingCount="0" stopTime="0.00" timeLoss="7.31" rerouteNo="0" devices="tripinfo_vehicle_15 emissions_vehicle_15 battery_vehicle_15" vType="human" speedFactor="0.93" vaporized="">
        <emissions CO_abs="0" CO2_abs="0" HC_abs="0" PMx_abs="0" NOx_abs="0" fuel_abs="0" electricity_abs="92.075744"/>
    </tripinfo>
    <tripinfo id="vehicle_13" depart="1.60" departLane="road3_0" departPos="4.10" departPosLat="0.00" departSpeed="5.30" departDelay="0.03" arrival="34.80" arrivalLane="-road0_0" arrivalPos="19.96" arrivalPosLat="0.00" arrivalSpeed="12.69" duration="33.20" routeLength="289.97" waitingTime="0.00" waitingCount="0" stopTime="0.00" timeLoss="10.94" rerouteNo="1" devices="tripinfo_vehicle_13 routing_vehicle_13 emissions_vehicle_13 battery_vehicle_13" vType="human" speedFactor="1.12" vaporized="">
        <emissions CO_abs="0" CO2_abs="0" HC_abs="0" PMx_abs="0" NOx_abs="0" fuel_abs="0" electricity_abs="97.291592"/>
    </tripinfo>
    <tripinfo id="vehicle_64" depart="7.60" departLane="road2_0" departPos="4.10" departPosLat="0.00" departSpeed="1.93" departDelay="2.81" arrival="36.80" arrivalLane="-road1_0" arrivalPos="19.96" arrivalPosLat="0.00" arrivalSpeed="11.39" duration="29.20" routeLength="122.77" waitingTime="6.40" waitingCount="1" stopTime="0.00" timeLoss="18.06" rerouteNo="1" devices="tripinfo_vehicle_64 routing_vehicle_64 emissions_vehicle_64 battery_vehicle_64" vType="human" speedFactor="0.94" vaporized="">
        <emissions CO_abs="0" CO2_abs="0" HC_abs="0" PMx_abs="0" NOx_abs="0" fuel_abs="0" electricity_abs="51.915329"/>
    </tripinfo>
    <tripinfo id="vehicle_31" depart="23.60" departLane="road3_0" departPos="4.10" departPosLat="0.00" departSpeed="3.18" departDelay="11.95" arrival="39.20" arrivalLane="-road2_0" arrivalPos="19.96" arrivalPosLat="0.00" arrivalSpeed="12.38" duration="15.60" routeLength="122.77" waitingTime="0.00" waitingCount="0" stopTime="0.00" timeLoss="5.62" rerouteNo="1" devices="tripinfo_vehicle_31 routing_vehicle_31 emissions_vehicle_31 battery_vehicle_31" vType="human" speedFactor="1.15" vaporized="">
        <emissions CO_abs="0" CO2_abs="0" HC_abs="0" PMx_abs="0" NOx_abs="0" fuel_abs="0" electricity_abs="62.942446"/>
    </tripinfo>
    <tripinfo id="vehicle_74" depart="11.20" departLane="road3_0" departPos="4.10" departPosLat="0.00" departSpeed="2.24" departDelay="4.85" arrival="42.00" arrivalLane="-road1_0" arrivalPos="19.96" arrivalPosLat="0.00" arrivalSpeed="11.66" duration="30.80" routeLength="206.37" waitingTime="2.80" waitingCount="1" stopTime="0.00" timeLoss="13.75" rerouteNo="1" devices="tripinfo_vehicle_74 routing_vehicle_74 emissions_vehicle_74 battery_vehicle_74" vType="human" speedFactor="0.96" vaporized="">
        <emissions CO_abs="0" CO2_abs="0" HC_abs="0" PMx_abs="0" NOx_abs="0" fuel_abs="0" electricity_abs="71.902420"/>
    </tripinfo>
    <tripinfo id="vehicle_7" depart="25.60" departLane="road3_0" departPos="4.10" departPosLat="0.00" departSpeed="2.70" departDelay="13.03" arrival="43.20" arrivalLane="-road2_0" arrivalPos="19.96" arrivalPosLat="0.00" arrivalSpeed="11.41" duration="17.60" routeLength="122.77" waitingTime="0.00" waitingCount="0" stopTime="0.00" timeLoss="5.89" rerouteNo="1" devices="tripinfo_vehicle_7 routing_vehicle_7 emissions_vehicle_7 battery_vehicle_7" vType="human" speedFactor="0.89" vaporized="">
        <emissions CO_abs="0" CO2_abs="0" HC_abs="0" PMx_abs="0" NOx_abs="0" fuel_abs="0" electricity_abs="53.307609"/>
    </tripinfo>
    <tripinfo id="vehicle_47" depart="13.60" departLane="road3_0" departPos="4.10" departPosLat="0.00" departSpeed="1.35" departDelay="6.63" arrival="44.80" arrivalLane="-road1_0" arrivalPos="19.96" arrivalPosLat="0.00" arrivalSpeed="12.10" duration="31.20" routeLength="206.37" waitingTime="2.00" waitingCount="1" stopTime="0.00" timeLoss="12.99" rerouteNo="1" devices="tripinfo_vehicle_47 routing_vehicle_47 emissions_vehicle_47 battery_vehicle_47" vType="human" speedFactor="0.90" vaporized="">
        <emissions CO_abs="0" CO2_abs="0" HC_abs="0" PMx_abs="0" NOx_abs="0" fuel_abs="0" electricity_abs="73.594264"/>
    </tripinfo>
    <tripinfo id="vehicle_65" depart="23.60" departLane="road1_0" departPos="4.10" departPosLat="0.00" departSpeed="1.73" departDelay="14.47" arrival="46.80" arrivalLane="-road0_0" arrivalPos="19.96" arrivalPosLat="0.00" arrivalSpeed="11.70" duration="23.20" routeLength="122.77" waitingTime="0.00" waitingCount="0" stopTime="0.00" timeLoss="11.30" rerouteNo="1" devices="tripinfo_vehicle_65 routing_vehicle_65 emissions_vehicle_65 battery_vehicle_65" vType="human" speedFactor="0.88" vaporized="">
        <emissions CO_abs="0" CO2_abs="0" HC_abs="0" PMx_abs="0" NOx_abs="0" fuel_abs="0" electricity_abs="52.382957"/>
    </tripinfo>
    <tripinfo id="vehicle_67" depart="21.20" departLane="road3_0" departPos="4.10" departPosLat="0.00" departSpeed="1.64" departDelay="11.34" arrival="47.20" arrivalLane="-road1_0" arrivalPos="19.96" arrivalPosLat="0.00" arrivalSpeed="11.23" duration="26.00" routeLength="206.37" waitingTime="0.00" waitingCount="0" stopTime="0.00" timeLoss="8.32" rerouteNo="1" devices="tripinfo_vehicle_67 routing_vehicle_67 emissions_vehicle_67 battery_vehicle_67" vType="human" speedFactor="0.91" vaporized="">
        <emissions CO_abs="0" CO2_abs="0" HC_abs="0" PMx_abs="0" NOx_abs="0" fuel_abs="0" electricity_abs="68.594522"/>
    </tripinfo>
    <tripinfo id="vehicle_18" depart="8.40" departLane="road1_0" departPos="4.10" departPosLat="0.00" departSpeed="2.42" departDelay="3.93" arrival="49.20" arrivalLane="-road2_0" arrivalPos="19.96" arrivalPosLat="0.00" arrivalSpeed="13.01" duration="40.80" routeLength="289.97" waitingTime="0.40" waitingCount="1" stopTime="0.00" timeLoss="16.96" rerouteNo="1" devices="tripinfo_vehicle_18 routing_vehicle_18 emissions_vehicle_18 battery_vehicle_18" vType="human" speedFactor="0.94" vaporized="">
        <emissions CO_abs="0" CO2_abs="0" HC_abs="0" PMx_abs="0" NOx_abs="0" fuel_abs="0" electricity_abs="96.236771"/>
    </tripinfo>
    <tripinfo id="vehicle_55" depart="8.80" departLane="road3_0" departPos="4.10" departPosLat="0.00" departSpeed="1.88" departDelay="2.69" arrival="50.80" arrivalLane="-road0_0" arrivalPos="19.96" arrivalPosLat="0.00" arrivalSpeed="12.01" duration="42.00" routeLength="289.97" waitingTime="3.60" waitingCount="1" stopTime="0.00" timeLoss="19.65" rerouteNo="1" devices="tripinfo_vehicle_55 routing_vehicle_55 emissions_vehicle_55 battery_vehicle_55" vType="human" speedFactor="1.00" vaporized="">
        <emissions CO_abs="0" CO2_abs="0" HC_abs="0" PMx_abs="0" NOx_abs="0" fuel_abs="0" electricity_abs="89.031367"/>
    </tripinfo>
    <tripinfo id="vehicle_49" depart="21.60" departLane="road1_0" departPos="4.10" departPosLat="0.00" departSpeed="2.70" departDelay="15.00" arrival="51.20" arrivalLane="-road3_0" arrivalPos="19.96" arrivalPosLat="0.00" arrivalSpeed="11.58" duration="29.60" routeLength="206.37" waitingTime="0.00" waitingCount="0" stopTime="0.00" timeLoss="10.50" rerouteNo="1" devices="tripinfo_vehicle_49 routing_vehicle_49 emissions_vehicle_49 battery_vehicle_49" vType="human" speedFactor="0.85" vaporized="">
        <emissions CO_abs="0" CO2_abs="0" HC_abs="0" PMx_abs="0" NOx_abs="0" fuel_abs="0" electricity_abs="66.280092"/>
    </tripinfo>
    <tripinfo id="vehicle_12" depart="32.00" departLane="road3_0" departPos="4.10" departPosLat="0.00" departSpeed="0.33" departDelay="10.08" arrival="51.60" arrivalLane="-road2_0" arrivalPos="19.96" arrivalPosLat="0.00" arrivalSpeed="12.53" duration="19.60" routeLength="122.77" waitingTime="0.00" waitingCount="0" stopTime="0.00" timeLoss="9.23" rerouteNo="1" devices="tripinfo_vehicle_12 routing_vehicle_12 emissions_vehicle_12 battery_vehicle_12" vType="human" speedFactor="1.05" vaporized="">
        <emissions CO_abs="0" CO2_abs="0" HC_abs="0" PMx_abs="0" NOx_abs="0" fuel_abs="0" electricity_abs="61.405935"/>
    </tripinfo>
    <tripinfo id="vehicle_41" depart="5.20" departLane="road2_0" departPos="4.10" departPosLat="0.00" departSpeed="2.75" departDelay="2.94" arrival="54.00" arrivalLane="-road3_0" arrivalPos="19.96" arrivalPosLat="0.00" arrivalSpeed="11.13" duration="48.80" routeLength="289.97" waitingTime="7.60" waitingCount="1" stopTime="0.00" timeLoss="25.42" rerouteNo="1" devices="tripinfo_vehicle_41 routing_vehicle_41 emissions_vehicle_41 battery_vehicle_41" vType="human" speedFactor="0.96" vaporized="">
        <emissions CO_abs="0" CO2_abs="0" HC_abs="0" PMx_abs="0" NOx_abs="0" fuel_abs="0" electricity_abs="80.298094"/>
    </tripinfo>
    <tripinfo id="vehicle_54" depart="29.60" departLane="road1_0" departPos="4.10" departPosLat="0.00" departSpeed="2.26" departDelay="17.99" arrival="54.00" arrivalLane="-road0_0" arrivalPos="19.96" arrivalPosLat="0.00" arrivalSpeed="12.19" duration="24.40" routeLength="122.77" waitingTime="4.40" waitingCount="1" stopTime="0.00" timeLoss="13.86" rerouteNo="1" devices="tripinfo_vehicle_54 routing_vehicle_54 emissions_vehicle_54 battery_vehicle_54" vType="human" speedFactor="1.00" vaporized="">
        <emissions CO_abs="0" CO2_abs="0" HC_abs="0" PMx_abs="0" NOx_abs="0" fuel_abs="0" electricity_abs="59.528342"/>
    </tripinfo>
    <tripinfo id="vehicle_9" depart="10.80" departLane="road0_0" departPos="4.10" departPosLat="0.00" departSpeed="0.20" departDelay="1.60" arrival="54.80" arrivalLane="-road2_0" arrivalPos="19.96" arrivalPosLat="0.00" arrivalSpeed="10.40" duration="44.00" routeLength="206.37" waitingTime="14.00" waitingCount="1" stopTime="0.00" timeLoss="25.04" rerouteNo="0" devices="tripinfo_vehicle_9 emissions_vehicle_9 battery_vehicle_9" vType="human" speedFactor="0.86" vaporized="">
        <emissions CO_abs="0" CO2_abs="0" HC_abs="0" PMx_abs="0" NOx_abs="0" fuel_abs="0" electricity_abs="65.216844"/>
    </tripinfo>
    <tripinfo id="vehicle_39" depart="30.00" departLane="road3_0" departPos="4.10" departPosLat="0.00" departSpeed="2.66" departDelay="10.66" arrival="55.60" arrivalLane="-road1_0" arrivalPos="19.96" arrivalPosLat="0.00" arrivalSpeed="11.53" duration="25.60" routeLength="206.37" waitingTime="0.00" waitingCount="0" stopTime="0.00" timeLoss="7.37" rerouteNo="1" devices="tripinfo_vehicle_39 routing_vehicle_39 emissions_vehicle_39 battery_vehicle_39" vType="human" speedFactor="0.90" vaporized="">
        <emissions CO_abs="0" CO2_abs="0" HC_abs="0" PMx_abs="0" NOx_abs="0" fuel_abs="0" electricity_abs="70.641955"/>
    </tripinfo>
    <tripinfo id="vehicle_61" depart="13.20" departLane="road0_0" departPos="4.10" departPosLat="0.00" departSpeed="0.11" departDelay="0.38" arrival="56.00" arrivalLane="-road3_0" arrivalPos="19.96" arrivalPosLat="0.00" arrivalSpeed="12.58" duration="42.80" routeLength="122.77" waitingTime="16.40" waitingCount="2" stopTime="0.00" timeLoss="32.49" rerouteNo="0" devices="tripinfo_vehicle_61 emissions_vehicle_61 battery_vehicle_61" vType="human" speedFactor="1.12" vaporized="">
        <emissions CO_abs="0" CO2_abs="0" HC_abs="0" PMx_abs="0" NOx_abs="0" fuel_abs="0" electricity_abs="62.577287"/>
    </tripinfo>
    <tripinfo id="vehicle_70" depart="10.00" departLane="road2_0" departPos="4.10" departPosLat="0.00" departSpeed="1.37" departDelay="5.23" arrival="58.40" arrivalLane="-road3_0" arrivalPos="19.96" arrivalPosLat="0.00" arrivalSpeed="11.51" duration="48.40" routeLength="289.97" waitingTime="6.00" waitingCount="1" stopTime="0.00" timeLoss="25.76" rerouteNo="1" devices="tripinfo_vehicle_70 routing_vehicle_70 emissions_vehicle_70 battery_vehicle_70" vType="human" speedFactor="1.02" vaporized="">
        <emissions CO_abs="0" CO2_abs="0" HC_abs="0" PMx_abs="0" NOx_abs="0" fuel_abs="0" electricity_abs="84.951388"/>
    </tripinfo>
    <tripinfo id="vehicle_75" depart="10.80" departLane="road1_0" departPos="4.10" departPosLat="0.00" departSpeed="1.68" departDelay="6.07" arrival="59.20" arrivalLane="-road2_0" arrivalPos="19.96" arrivalPosLat="0.00" arrivalSpeed="12.50" duration="48.40" routeLength="289.97" waitingTime="0.40" waitingCount="1" stopTime="0.00" timeLoss="25.92" rerouteNo="1" devices="tripinfo_vehicle_75 routing_vehicle_75 emissions_vehicle_75 battery_vehicle_75" vType="human" speedFactor="0.98" vaporized="">
        <emissions CO_abs="0" CO2_abs="0" HC_abs="0" PMx_abs="0" NOx_abs="0" fuel_abs="0" electricity_abs="89.439554"/>
    </tripinfo>
    <tripinfo id="vehicle_48" depart="8.40" departLane="road0_0" departPos="4.10" departPosLat="0.00" departSpeed="2.11" departDelay="0.77" arrival="59.60" arrivalLane="-road1_0" arrivalPos="19.96" arrivalPosLat="0.00" arrivalSpeed="11.29" duration="51.20" routeLength="289.97" waitingTime="14.80" waitingCount="2" stopTime="0.00" timeLoss="25.83" rerouteNo="0" devices="tripinfo_vehicle_48 emissions_vehicle_48 battery_vehicle_48" vType="human" speedFactor="0.88" vaporized="">
        <emissions CO_abs="0" CO2_abs="0" HC_abs="0" PMx_abs="0" NOx_abs="0" fuel_abs="0" electricity_abs="85.026935"/>
    </tripinfo>
    <tripinfo id="vehicle_62" depart="28.00" departLane="road3_0" departPos="4.10" departPosLat="0.00" departSpeed="2.40" departDelay="10.47" arrival="60.00" arrivalLane="-road0_0" arrivalPos="19.96" arrivalPosLat="0.00" arrivalSpeed="12.38" duration="32.00" routeLength="289.97" waitingTime="0.00" waitingCount="0" stopTime="0.00" timeLoss="9.38" rerouteNo="1" devices="tripinfo_vehicle_62 routing_vehicle_62 emissions_vehicle_62 battery_vehicle_62" vType="human" speedFactor="1.02" vaporized="">
        <emissions CO_abs="0" CO2_abs="0" HC_abs="0" PMx_abs="0" NOx_abs="0" fuel_abs="0" electricity_abs="101.177061"/>
    </tripinfo>
    <tripinfo id="vehicle_51" depart="16.40" departLane="road1_0" departPos="4.10" departPosLat="0.00" departSpeed="1.25" departDelay="11.06" arrival="61.60" arrivalLane="-road2_0" arrivalPos="19.96" arrivalPosLat="0.00" arrivalSpeed="11.86" duration="45.20" routeLength="289.97" waitingTime="0.00" waitingCount="0" stopTime="0.00" timeLoss="23.16" rerouteNo="1" devices="tripinfo_vehicle_51 routing_vehicle_51 emissions_vehicle_51 battery_vehicle_51" vType="human" speedFactor="1.17" vaporized="">
        <emissions CO_abs="0" CO2_abs="0" HC_abs="0" PMx_abs="0" NOx_abs="0" fuel_abs="0" electricity_abs="86.255789"/>
    </tripinfo>
    <tripinfo id="vehicle_57" depart="19.20" departLane="road1_0" departPos="4.10" departPosLat="0.00" departSpeed="2.17" departDelay="13.47" arrival="63.60" arrivalLane="-road2_0" arrivalPos="19.96" arrivalPosLat="0.00" arrivalSpeed="12.33" duration="44.40" routeLength="289.97" waitingTime="0.00" waitingCount="0" stopTime="0.00" timeLoss="22.29" rerouteNo="1" devices="tripinfo_vehicle_57 routing_vehicle_57 emissions_vehicle_57 battery_vehicle_57" vType="human" speedFactor="1.14" vaporized="">
        <emissions CO_abs="0" CO2_abs="0" HC_abs="0" PMx_abs="0" NOx_abs="0" fuel_abs="0" electricity_abs="88.278421"/>
    </tripinfo>
    <tripinfo id="vehicle_78" depart="34.80" departLane="road1_0" departPos="4.10" departPosLat="0.00" departSpeed="1.20" departDelay="17.56" arrival="64.40" arrivalLane="-road3_0" arrivalPos="19.96" arrivalPosLat="0.00" arrivalSpeed="13.28" duration="29.60" routeLength="206.37" waitingTime="1.60" waitingCount="1" stopTime="0.00" timeLoss="12.97" rerouteNo="1" devices="tripinfo_vehicle_78 routing_vehicle_78 emissions_vehicle_78 battery_vehicle_78" vType="human" speedFactor="1.01" vaporized="">
        <emissions CO_abs="0" CO2_abs="0" HC_abs="0" PMx_abs="0" NOx_abs="0" fuel_abs="0" electricity_abs="87.867413"/>
    </tripinfo>
    <tripinfo id="vehicle_40" depart="40.00" departLane="road3_0" departPos="4.10" departPosLat="0.00" departSpeed="1.02" departDelay="15.23" arrival="68.00" arrivalLane="-road2_0" arrivalPos="19.96" arrivalPosLat="0.00" arrivalSpeed="12.28" duration="28.00" routeLength="122.77" waitingTime="2.40" waitingCount="2" stopTime="0.00" timeLoss="17.78" rerouteNo="1" devices="tripinfo_vehicle_40 routing_vehicle_40 emissions_vehicle_40 battery_vehicle_40" vType="human" speedFactor="1.03" vaporized="">
        <emissions CO_abs="0" CO2_abs="0" HC_abs="0" PMx_abs="0" NOx_abs="0" fuel_abs="0" electricity_abs="55.906742"/>
    </tripinfo>
    <tripinfo id="vehicle_2" depart="53.20" departLane="road2_0" departPos="4.10" departPosLat="0.00" departSpeed="3.55" departDelay="43.47" arrival="69.60" arrivalLane="-road1_0" arrivalPos="19.96" arrivalPosLat="0.00" arrivalSpeed="11.89" duration="16.40" routeLength="122.77" waitingTime="0.00" waitingCount="0" stopTime="0.00" timeLoss="6.03" rerouteNo="1" devices="tripinfo_vehicle_2 routing_vehicle_2 emissions_vehicle_2 battery_vehicle_2" vType="human" speedFactor="1.01" vaporized="">
        <emissions CO_abs="0" CO2_abs="0" HC_abs="0" PMx_abs="0" NOx_abs="0" fuel_abs="0" electricity_abs="56.336019"/>
    </tripinfo>
    <tripinfo id="vehicle_73" depart="21.60" departLane="road2_0" departPos="4.10" departPosLat="0.00" departSpeed="1.16" departDelay="16.39" arrival="69.60" arrivalLane="-road3_0" arrivalPos="19.96" arrivalPosLat="0.00" arrivalSpeed="13.38" duration="48.00" routeLength="289.97" waitingTime="15.60" waitingCount="2" stopTime="0.00" timeLoss="25.55" rerouteNo="1" devices="tripinfo_vehicle_73 routing_vehicle_73 emissions_vehicle_73 battery_vehicle_73" vType="human" speedFactor="1.06" vaporized="">
        <emissions CO_abs="0" CO2_abs="0" HC_abs="0" PMx_abs="0" NOx_abs="0" fuel_abs="0" electricity_abs="112.197999"/>
    </tripinfo>
    <tripinfo id="vehicle_4" depart="32.40" departLane="road1_0" departPos="4.10" departPosLat="0.00" departSpeed="2.39" departDelay="17.21" arrival="72.80" arrivalLane="-road2_0" arrivalPos="19.96" arrivalPosLat="0.00" arrivalSpeed="12.07" duration="40.40" routeLength="289.97" waitingTime="3.20" waitingCount="2" stopTime="0.00" timeLoss="17.80" rerouteNo="1" devices="tripinfo_vehicle_4 routing_vehicle_4 emissions_vehicle_4 battery_vehicle_4" vType="human" speedFactor="1.03" vaporized="">
        <emissions CO_abs="0" CO2_abs="0" HC_abs="0" PMx_abs="0" NOx_abs="0" fuel_abs="0" electricity_abs="98.367068"/>
    </tripinfo>
    <tripinfo id="vehicle_46" depart="24.40" departLane="road2_0" departPos="4.10" departPosLat="0.00" departSpeed="3.75" departDelay="18.67" arrival="73.20" arrivalLane="-road3_0" arrivalPos="19.96" arrivalPosLat="0.00" arrivalSpeed="12.39" duration="48.80" routeLength="289.97" waitingTime="14.40" waitingCount="1" stopTime="0.00" timeLoss="26.22" rerouteNo="1" devices="tripinfo_vehicle_46 routing_vehicle_46 emissions_vehicle_46 battery_vehicle_46" vType="human" speedFactor="1.00" vaporized="">
        <emissions CO_abs="0" CO2_abs="0" HC_abs="0" PMx_abs="0" NOx_abs="0" fuel_abs="0" electricity_abs="99.085759"/>
    </tripinfo>
    <tripinfo id="vehicle_16" depart="48.80" departLane="road2_0" departPos="4.10" departPosLat="0.00" departSpeed="3.10" departDelay="41.25" arrival="74.00" arrivalLane="-road0_0" arrivalPos="19.96" arrivalPosLat="0.00" arrivalSpeed="11.91" duration="25.20" routeLength="206.37" waitingTime="0.00" waitingCount="0" stopTime="0.00" timeLoss="6.45" rerouteNo="1" devices="tripinfo_vehicle_16 routing_vehicle_16 emissions_vehicle_16 battery_vehicle_16" vType="human" speedFactor="0.88" vaporized="">
        <emissions CO_abs="0" CO2_abs="0" HC_abs="0" PMx_abs="0" NOx_abs="0" fuel_abs="0" electricity_abs="71.560922"/>
    </tripinfo>
    <tripinfo id="vehicle_45" depart="47.60" departLane="road3_0" departPos="4.10" departPosLat="0.00" departSpeed="0.97" departDelay="21.84" arrival="74.40" arrivalLane="-road2_0" arrivalPos="19.96" arrivalPosLat="0.00" arrivalSpeed="12.15" duration="26.80" routeLength="122.77" waitingTime="0.00" waitingCount="0" stopTime="0.00" timeLoss="16.65" rerouteNo="1" devices="tripinfo_vehicle_45 routing_vehicle_45 emissions_vehicle_45 battery_vehicle_45" vType="human" speedFactor="1.09" vaporized="">