<?xml version="1.0" encoding="UTF-8"?>

<!-- generated on 2024-11-01 21:40:42 by Eclipse SUMO sumo Version v1_20_0+0085-e155ab8699b
<configuration xmlns:xsi="http://www.w3.org/2001/XMLSchema-instance" xsi:noNamespaceSchemaLocation="http://sumo.dlr.de/xsd/sumoConfiguration.xsd">

    <input>
        <net-file value="../networks/roundabout.net.xml"/>
        <route-files value="../networks/routes1.rou.xml"/>
    </input>

    <output>
        <output-prefix value="374-"/>
        <battery-output.precision value="4"/>
        <tripinfo-output value="../networks/output_data/output_default/tripinfo/tripinfo-output.xml"/>
        <collision-output value="../networks/output_data/output_default/collision/collision-output.xml"/>
    </output>

    <time>
        <begin value="0"/>
        <step-length value="0.4"/>
    </time>

    <processing>
        <step-method.ballistic value="true"/>
        <lateral-resolution value="3.2"/>
        <collision.action value="warn"/>
        <collision.check-junctions value="True"/>
        <collision.mingap-factor value="0"/>
        <time-to-teleport value="-1"/>
        <random-depart-offset value="5"/>
    </processing>

    <report>
        <no-warnings value="True"/>
        <no-step-log value="True"/>
    </report>

    <emissions>
        <device.emissions.probability value="1"/>
    </emissions>

    <battery>
        <device.battery.probability value="1"/>
    </battery>

    <traci_server>
        <remote-port value="37373"/>
    </traci_server>

    <gui_only>
        <quit-on-end value="True"/>
        <start value="True"/>
    </gui_only>

</configuration>
-->

<tripinfos xmlns:xsi="http://www.w3.org/2001/XMLSchema-instance" xsi:noNamespaceSchemaLocation="http://sumo.dlr.de/xsd/tripinfo_file.xsd">
    <tripinfo id="vehicle_1" depart="1.20" departLane="road3_0" departPos="4.10" departPosLat="0.00" departSpeed="1.12" departDelay="0.22" arrival="17.60" arrivalLane="-road2_0" arrivalPos="19.96" arrivalPosLat="0.00" arrivalSpeed="12.06" duration="16.40" routeLength="122.77" waitingTime="0.00" waitingCount="0" stopTime="0.00" timeLoss="5.23" rerouteNo="1" devices="tripinfo_vehicle_1 routing_vehicle_1 emissions_vehicle_1 battery_vehicle_1" vType="human" speedFactor="0.94" vaporized="">
        <emissions CO_abs="0" CO2_abs="0" HC_abs="0" PMx_abs="0" NOx_abs="0" fuel_abs="0" electricity_abs="59.522370"/>
    </tripinfo>
    <tripinfo id="vehicle_29" depart="2.80" departLane="road0_0" departPos="4.10" departPosLat="0.00" departSpeed="1.43" departDelay="1.49" arrival="18.80" arrivalLane="-road3_0" arrivalPos="19.96" arrivalPosLat="0.00" arrivalSpeed="11.14" duration="16.00" routeLength="122.77" waitingTime="0.00" waitingCount="0" stopTime="0.00" timeLoss="4.89" rerouteNo="0" devices="tripinfo_vehicle_29 emissions_vehicle_29 battery_vehicle_29" vType="human" speedFactor="0.93" vaporized="">
        <emissions CO_abs="0" CO2_abs="0" HC_abs="0" PMx_abs="0" NOx_abs="0" fuel_abs="0" electricity_abs="54.377797"/>
    </tripinfo>
    <tripinfo id="vehicle_60" depart="0.40" departLane="road2_0" departPos="4.10" departPosLat="0.00" departSpeed="6.33" departDelay="0.24" arrival="20.80" arrivalLane="-road0_0" arrivalPos="19.96" arrivalPosLat="0.00" arrivalSpeed="13.21" duration="20.40" routeLength="206.37" waitingTime="0.00" waitingCount="0" stopTime="0.00" timeLoss="4.20" rerouteNo="1" devices="tripinfo_vehicle_60 routing_vehicle_60 emissions_vehicle_60 battery_vehicle_60" vType="human" speedFactor="1.08" vaporized="">
        <emissions CO_abs="0" CO2_abs="0" HC_abs="0" PMx_abs="0" NOx_abs="0" fuel_abs="0" electricity_abs="81.909847"/>
    </tripinfo>
    <tripinfo id="vehicle_28" depart="0.80" departLane="road0_0" departPos="4.10" departPosLat="0.00" departSpeed="0.10" departDelay="0.02" arrival="22.40" arrivalLane="-road2_0" arrivalPos="19.96" arrivalPosLat="0.00" arrivalSpeed="13.48" duration="21.60" routeLength="206.37" waitingTime="0.00" waitingCount="0" stopTime="0.00" timeLoss="5.27" rerouteNo="0" devices="tripinfo_vehicle_28 emissions_vehicle_28 battery_vehicle_28" vType="human" speedFactor="1.13" vaporized="">
        <emissions CO_abs="0" CO2_abs="0" HC_abs="0" PMx_abs="0" NOx_abs="0" fuel_abs="0" electricity_abs="93.484771"/>
    </tripinfo>
    <tripinfo id="vehicle_44" depart="0.80" departLane="road1_0" departPos="4.10" departPosLat="0.00" departSpeed="8.17" departDelay="0.34" arrival="22.80" arrivalLane="-road3_0" arrivalPos="19.96" arrivalPosLat="0.00" arrivalSpeed="12.48" duration="22.00" routeLength="206.37" waitingTime="0.00" waitingCount="0" stopTime="0.00" timeLoss="5.76" rerouteNo="1" devices="tripinfo_vehicle_44 routing_vehicle_44 emissions_vehicle_44 battery_vehicle_44" vType="human" speedFactor="1.04" vaporized="">
        <emissions CO_abs="0" CO2_abs="0" HC_abs="0" PMx_abs="0" NOx_abs="0" fuel_abs="0" electricity_abs="64.648562"/>
    </tripinfo>
    <tripinfo id="vehicle_5" depart="2.80" departLane="road3_0" departPos="4.10" departPosLat="0.00" departSpeed="4.18" departDelay="1.38" arrival="29.20" arrivalLane="-road1_0" arrivalPos="19.96" arrivalPosLat="0.00" arrivalSpeed="11.32" duration="26.40" routeLength="206.37" waitingTime="0.00" waitingCount="0" stopTime="0.00" timeLoss="6.72" rerouteNo="1" devices="tripinfo_vehicle_5 routing_vehicle_5 emissions_vehicle_5 battery_vehicle_5" vType="human" speedFactor="0.83" vaporized="">
        <emissions CO_abs="0" CO2_abs="0" HC_abs="0" PMx_abs="0" NOx_abs="0" fuel_abs="0" electricity_abs="65.182006"/>
    </tripinfo>
    <tripinfo id="vehicle_24" depart="5.20" departLane="road2_0" departPos="4.10" departPosLat="0.00" departSpeed="0.15" departDelay="0.05" arrival="30.80" arrivalLane="-road0_0" arrivalPos="19.96" arrivalPosLat="0.00" arrivalSpeed="11.19" duration="25.60" routeLength="206.37" waitingTime="0.00" waitingCount="0" stopTime="0.00" timeLoss="5.75" rerouteNo="1" devices="tripinfo_vehicle_24 routing_vehicle_24 emissions_vehicle_24 battery_vehicle_24" vType="human" speedFactor="0.83" vaporized="">
        <emissions CO_abs="0" CO2_abs="0" HC_abs="0" PMx_abs="0" NOx_abs="0" fuel_abs="0" electricity_abs="66.878088"/>
    </tripinfo>
    <tripinfo id="vehicle_30" depart="3.20" departLane="road1_0" departPos="4.10" departPosLat="0.00" departSpeed="7.58" departDelay="0.02" arrival="31.60" arrivalLane="-road2_0" arrivalPos="19.96" arrivalPosLat="0.00" arrivalSpeed="12.24" duration="28.40" routeLength="289.97" waitingTime="0.00" waitingCount="0" stopTime="0.00" timeLoss="6.41" rerouteNo="1" devices="tripinfo_vehicle_30 routing_vehicle_30 emissions_vehicle_30 battery_vehicle_30" vType="human" speedFactor="1.18" vaporized="">
        <emissions CO_abs="0" CO2_abs="0" HC_abs="0" PMx_abs="0" NOx_abs="0" fuel_abs="0" electricity_abs="89.350359"/>
    </tripinfo>
    <tripinfo id="vehicle_49" depart="10.80" departLane="road2_0" departPos="4.10" departPosLat="0.00" departSpeed="1.74" departDelay="1.07" arrival="34.00" arrivalLane="-road1_0" arrivalPos="19.96" arrivalPosLat="0.00" arrivalSpeed="11.58" duration="23.20" routeLength="122.77" waitingTime="1.20" waitingCount="1" stopTime="0.00" timeLoss="11.02" rerouteNo="1" devices="tripinfo_vehicle_49 routing_vehicle_49 emissions_vehicle_49 battery_vehicle_49" vType="human" speedFactor="0.85" vaporized="">
        <emissions CO_abs="0" CO2_abs="0" HC_abs="0" PMx_abs="0" NOx_abs="0" fuel_abs="0" electricity_abs="54.927198"/>
    </tripinfo>
    <tripinfo id="vehicle_40" depart="4.40" departLane="road0_0" departPos="4.10" departPosLat="0.00" departSpeed="2.63" departDelay="2.71" arrival="36.40" arrivalLane="-road1_0" arrivalPos="19.96" arrivalPosLat="0.00" arrivalSpeed="12.32" duration="32.00" routeLength="289.97" waitingTime="0.00" waitingCount="0" stopTime="0.00" timeLoss="9.49" rerouteNo="0" devices="tripinfo_vehicle_40 emissions_vehicle_40 battery_vehicle_40" vType="human" speedFactor="1.03" vaporized="">
        <emissions CO_abs="0" CO2_abs="0" HC_abs="0" PMx_abs="0" NOx_abs="0" fuel_abs="0" electricity_abs="99.105768"/>
    </tripinfo>
    <tripinfo id="vehicle_22" depart="9.20" departLane="road2_0" departPos="4.10" departPosLat="0.00" departSpeed="3.88" departDelay="1.03" arrival="38.80" arrivalLane="-road0_0" arrivalPos="19.96" arrivalPosLat="0.00" arrivalSpeed="12.14" duration="29.60" routeLength="206.37" waitingTime="2.00" waitingCount="1" stopTime="0.00" timeLoss="12.77" rerouteNo="1" devices="tripinfo_vehicle_22 routing_vehicle_22 emissions_vehicle_22 battery_vehicle_22" vType="human" speedFactor="0.97" vaporized="">
        <emissions CO_abs="0" CO2_abs="0" HC_abs="0" PMx_abs="0" NOx_abs="0" fuel_abs="0" electricity_abs="75.603904"/>
    </tripinfo>
    <tripinfo id="vehicle_67" depart="8.00" departLane="road2_0" departPos="4.10" departPosLat="0.00" departSpeed="4.37" departDelay="0.07" arrival="40.40" arrivalLane="-road3_0" arrivalPos="19.96" arrivalPosLat="0.00" arrivalSpeed="11.84" duration="32.40" routeLength="289.97" waitingTime="0.00" waitingCount="0" stopTime="0.00" timeLoss="8.26" rerouteNo="1" devices="tripinfo_vehicle_67 routing_vehicle_67 emissions_vehicle_67 battery_vehicle_67" vType="human" speedFactor="0.91" vaporized="">
        <emissions CO_abs="0" CO2_abs="0" HC_abs="0" PMx_abs="0" NOx_abs="0" fuel_abs="0" electricity_abs="87.546820"/>
    </tripinfo>
    <tripinfo id="vehicle_14" depart="6.40" departLane="road0_0" departPos="4.10" departPosLat="0.00" departSpeed="0.55" departDelay="1.30" arrival="44.00" arrivalLane="-road3_0" arrivalPos="19.96" arrivalPosLat="0.00" arrivalSpeed="13.66" duration="37.60" routeLength="122.77" waitingTime="18.80" waitingCount="1" stopTime="0.00" timeLoss="27.01" rerouteNo="0" devices="tripinfo_vehicle_14 emissions_vehicle_14 battery_vehicle_14" vType="human" speedFactor="0.99" vaporized="">
        <emissions CO_abs="0" CO2_abs="0" HC_abs="0" PMx_abs="0" NOx_abs="0" fuel_abs="0" electricity_abs="72.578312"/>
    </tripinfo>
    <tripinfo id="vehicle_9" depart="24.80" departLane="road2_0" departPos="4.10" departPosLat="0.00" departSpeed="3.42" departDelay="5.60" arrival="44.80" arrivalLane="-road1_0" arrivalPos="19.96" arrivalPosLat="0.00" arrivalSpeed="11.14" duration="20.00" routeLength="122.77" waitingTime="0.00" waitingCount="0" stopTime="0.00" timeLoss="8.12" rerouteNo="1" devices="tripinfo_vehicle_9 routing_vehicle_9 emissions_vehicle_9 battery_vehicle_9" vType="human" speedFactor="0.86" vaporized="">
        <emissions CO_abs="0" CO2_abs="0" HC_abs="0" PMx_abs="0" NOx_abs="0" fuel_abs="0" electricity_abs="46.203330"/>
    </tripinfo>
    <tripinfo id="vehicle_41" depart="14.00" departLane="road2_0" departPos="4.10" departPosLat="0.00" departSpeed="1.29" departDelay="2.01" arrival="46.00" arrivalLane="-road0_0" arrivalPos="19.96" arrivalPosLat="0.00" arrivalSpeed="12.30" duration="32.00" routeLength="206.37" waitingTime="0.40" waitingCount="1" stopTime="0.00" timeLoss="14.73" rerouteNo="1" devices="tripinfo_vehicle_41 routing_vehicle_41 emissions_vehicle_41 battery_vehicle_41" vType="human" speedFactor="0.96" vaporized="">
        <emissions CO_abs="0" CO2_abs="0" HC_abs="0" PMx_abs="0" NOx_abs="0" fuel_abs="0" electricity_abs="77.120525"/>
    </tripinfo>
    <tripinfo id="vehicle_47" depart="6.80" departLane="road3_0" departPos="4.10" departPosLat="0.00" departSpeed="2.39" departDelay="4.68" arrival="47.60" arrivalLane="-road1_0" arrivalPos="19.96" arrivalPosLat="0.00" arrivalSpeed="12.10" duration="40.80" routeLength="206.37" waitingTime="11.60" waitingCount="1" stopTime="0.00" timeLoss="22.57" rerouteNo="1" devices="tripinfo_vehicle_47 routing_vehicle_47 emissions_vehicle_47 battery_vehicle_47" vType="human" speedFactor="0.90" vaporized="">
        <emissions CO_abs="0" CO2_abs="0" HC_abs="0" PMx_abs="0" NOx_abs="0" fuel_abs="0" electricity_abs="74.758625"/>
    </tripinfo>
    <tripinfo id="vehicle_61" depart="10.80" departLane="road0_0" departPos="4.10" departPosLat="0.00" departSpeed="0.37" departDelay="2.65" arrival="48.00" arrivalLane="-road3_0" arrivalPos="19.96" arrivalPosLat="0.00" arrivalSpeed="12.66" duration="37.20" routeLength="122.77" waitingTime="16.40" waitingCount="1" stopTime="0.00" timeLoss="26.83" rerouteNo="0" devices="tripinfo_vehicle_61 emissions_vehicle_61 battery_vehicle_61" vType="human" speedFactor="1.12" vaporized="">
        <emissions CO_abs="0" CO2_abs="0" HC_abs="0" PMx_abs="0" NOx_abs="0" fuel_abs="0" electricity_abs="65.660431"/>
    </tripinfo>
    <tripinfo id="vehicle_52" depart="20.00" departLane="road2_0" departPos="4.10" departPosLat="0.00" departSpeed="0.93" departDelay="8.22" arrival="48.40" arrivalLane="-road0_0" arrivalPos="19.96" arrivalPosLat="0.00" arrivalSpeed="11.62" duration="28.40" routeLength="206.37" waitingTime="0.00" waitingCount="0" stopTime="0.00" timeLoss="11.95" rerouteNo="1" devices="tripinfo_vehicle_52 routing_vehicle_52 emissions_vehicle_52 battery_vehicle_52" vType="human" speedFactor="1.02" vaporized="">
        <emissions CO_abs="0" CO2_abs="0" HC_abs="0" PMx_abs="0" NOx_abs="0" fuel_abs="0" electricity_abs="70.233632"/>
    </tripinfo>
    <tripinfo id="vehicle_75" depart="25.60" departLane="road3_0" departPos="4.10" departPosLat="0.00" departSpeed="0.87" departDelay="21.76" arrival="50.00" arrivalLane="-road1_0" arrivalPos="19.96" arrivalPosLat="0.00" arrivalSpeed="11.96" duration="24.40" routeLength="206.37" waitingTime="0.00" waitingCount="0" stopTime="0.00" timeLoss="8.03" rerouteNo="1" devices="tripinfo_vehicle_75 routing_vehicle_75 emissions_vehicle_75 battery_vehicle_75" vType="human" speedFactor="0.98" vaporized="">
        <emissions CO_abs="0" CO2_abs="0" HC_abs="0" PMx_abs="0" NOx_abs="0" fuel_abs="0" electricity_abs="78.549743"/>
    </tripinfo>
    <tripinfo id="vehicle_8" depart="22.80" departLane="road2_0" departPos="4.10" departPosLat="0.00" departSpeed="3.33" departDelay="8.85" arrival="50.80" arrivalLane="-road0_0" arrivalPos="19.96" arrivalPosLat="0.00" arrivalSpeed="13.00" duration="28.00" routeLength="206.37" waitingTime="0.00" waitingCount="0" stopTime="0.00" timeLoss="10.36" rerouteNo="1" devices="tripinfo_vehicle_8 routing_vehicle_8 emissions_vehicle_8 battery_vehicle_8" vType="human" speedFactor="0.94" vaporized="">
        <emissions CO_abs="0" CO2_abs="0" HC_abs="0" PMx_abs="0" NOx_abs="0" fuel_abs="0" electricity_abs="75.798264"/>
    </tripinfo>
    <tripinfo id="vehicle_79" depart="33.20" departLane="road0_0" departPos="4.10" departPosLat="0.00" departSpeed="1.33" departDelay="22.34" arrival="50.80" arrivalLane="-road3_0" arrivalPos="19.96" arrivalPosLat="0.00" arrivalSpeed="13.04" duration="17.60" routeLength="122.77" waitingTime="0.00" waitingCount="0" stopTime="0.00" timeLoss="7.34" rerouteNo="0" devices="tripinfo_vehicle_79 emissions_vehicle_79 battery_vehicle_79" vType="human" speedFactor="1.09" vaporized="">
        <emissions CO_abs="0" CO2_abs="0" HC_abs="0" PMx_abs="0" NOx_abs="0" fuel_abs="0" electricity_abs="64.976465"/>
    </tripinfo>
    <tripinfo id="vehicle_35" depart="28.00" departLane="road3_0" departPos="4.10" departPosLat="0.00" departSpeed="2.29" departDelay="23.02" arrival="52.40" arrivalLane="-road1_0" arrivalPos="19.96" arrivalPosLat="0.00" arrivalSpeed="11.72" duration="24.40" routeLength="206.37" waitingTime="0.00" waitingCount="0" stopTime="0.00" timeLoss="8.15" rerouteNo="1" devices="tripinfo_vehicle_35 routing_vehicle_35 emissions_vehicle_35 battery_vehicle_35" vType="human" speedFactor="1.02" vaporized="">
        <emissions CO_abs="0" CO2_abs="0" HC_abs="0" PMx_abs="0" NOx_abs="0" fuel_abs="0" electricity_abs="75.389293"/>
    </tripinfo>
    <tripinfo id="vehicle_39" depart="4.40" departLane="road3_0" departPos="4.10" departPosLat="0.00" departSpeed="0.87" departDelay="2.87" arrival="53.20" arrivalLane="-road0_0" arrivalPos="19.96" arrivalPosLat="0.00" arrivalSpeed="11.96" duration="48.80" routeLength="289.97" waitingTime="12.00" waitingCount="1" stopTime="0.00" timeLoss="24.11" rerouteNo="1" devices="tripinfo_vehicle_39 routing_vehicle_39 emissions_vehicle_39 battery_vehicle_39" vType="human" speedFactor="0.90" vaporized="">
        <emissions CO_abs="0" CO2_abs="0" HC_abs="0" PMx_abs="0" NOx_abs="0" fuel_abs="0" electricity_abs="93.573838"/>
    </tripinfo>
    <tripinfo id="vehicle_6" depart="32.80" departLane="road3_0" departPos="4.10" departPosLat="0.00" departSpeed="2.76" departDelay="20.92" arrival="55.60" arrivalLane="-road1_0" arrivalPos="19.96" arrivalPosLat="0.00" arrivalSpeed="11.94" duration="22.80" routeLength="206.37" waitingTime="0.00" waitingCount="0" stopTime="0.00" timeLoss="6.48" rerouteNo="1" devices="tripinfo_vehicle_6 routing_vehicle_6 emissions_vehicle_6 battery_vehicle_6" vType="human" speedFactor="1.05" vaporized="">
        <emissions CO_abs="0" CO2_abs="0" HC_abs="0" PMx_abs="0" NOx_abs="0" fuel_abs="0" electricity_abs="78.428782"/>
    </tripinfo>
    <tripinfo id="vehicle_78" depart="9.20" departLane="road3_0" departPos="4.10" departPosLat="0.00" departSpeed="0.67" departDelay="6.69" arrival="55.60" arrivalLane="-road0_0" arrivalPos="19.96" arrivalPosLat="0.00" arrivalSpeed="12.82" duration="46.40" routeLength="289.97" waitingTime="10.80" waitingCount="1" stopTime="0.00" timeLoss="24.03" rerouteNo="1" devices="tripinfo_vehicle_78 routing_vehicle_78 emissions_vehicle_78 battery_vehicle_78" vType="human" speedFactor="1.01" vaporized="">
        <emissions CO_abs="0" CO2_abs="0" HC_abs="0" PMx_abs="0" NOx_abs="0" fuel_abs="0" electricity_abs="104.451818"/>
    </tripinfo>
    <tripinfo id="vehicle_72" depart="41.60" departLane="road0_0" departPos="4.10" departPosLat="0.00" departSpeed="3.65" departDelay="27.64" arrival="58.40" arrivalLane="-road3_0" arrivalPos="19.96" arrivalPosLat="0.00" arrivalSpeed="12.03" duration="16.80" routeLength="122.77" waitingTime="0.00" waitingCount="0" stopTime="0.00" timeLoss="5.63" rerouteNo="0" devices="tripinfo_vehicle_72 emissions_vehicle_72 battery_vehicle_72" vType="human" speedFactor="0.94" vaporized="">
        <emissions CO_abs="0" CO2_abs="0" HC_abs="0" PMx_abs="0" NOx_abs="0" fuel_abs="0" electricity_abs="56.518008"/>
    </tripinfo>
    <tripinfo id="vehicle_3" depart="8.40" departLane="road0_0" departPos="4.10" departPosLat="0.00" departSpeed="2.13" departDelay="0.38" arrival="59.20" arrivalLane="-road1_0" arrivalPos="19.96" arrivalPosLat="0.00" arrivalSpeed="12.13" duration="50.80" routeLength="289.97" waitingTime="17.60" waitingCount="1" stopTime="0.00" timeLoss="28.67" rerouteNo="0" devices="tripinfo_vehicle_3 emissions_vehicle_3 battery_vehicle_3" vType="human" speedFactor="1.08" vaporized="">
        <emissions CO_abs="0" CO2_abs="0" HC_abs="0" PMx_abs="0" NOx_abs="0" fuel_abs="0" electricity_abs="102.842557"/>
    </tripinfo>
    <tripinfo id="vehicle_10" depart="37.60" departLane="road0_0" departPos="4.10" departPosLat="0.00" departSpeed="1.66" departDelay="25.75" arrival="60.40" arrivalLane="-road2_0" arrivalPos="19.96" arrivalPosLat="0.00" arrivalSpeed="12.97" duration="22.80" routeLength="206.37" waitingTime="0.00" waitingCount="0" stopTime="0.00" timeLoss="6.57" rerouteNo="0" devices="tripinfo_vehicle_10 emissions_vehicle_10 battery_vehicle_10" vType="human" speedFactor="1.09" vaporized="">
        <emissions CO_abs="0" CO2_abs="0" HC_abs="0" PMx_abs="0" NOx_abs="0" fuel_abs="0" electricity_abs="86.833432"/>
    </tripinfo>
    <tripinfo id="vehicle_15" depart="8.80" departLane="road1_0" departPos="4.10" departPosLat="0.00" departSpeed="1.30" departDelay="4.02" arrival="60.40" arrivalLane="-road0_0" arrivalPos="19.96" arrivalPosLat="0.00" arrivalSpeed="11.20" duration="51.60" routeLength="122.77" waitingTime="28.80" waitingCount="1" stopTime="0.00" timeLoss="40.54" rerouteNo="1" devices="tripinfo_vehicle_15 routing_vehicle_15 emissions_vehicle_15 battery_vehicle_15" vType="human" speedFactor="0.93" vaporized="">
        <emissions CO_abs="0" CO2_abs="0" HC_abs="0" PMx_abs="0" NOx_abs="0" fuel_abs="0" electricity_abs="50.631711"/>
    </tripinfo>
    <tripinfo id="vehicle_68" depart="43.20" departLane="road0_0" departPos="4.10" departPosLat="0.00" departSpeed="2.88" departDelay="29.18" arrival="60.40" arrivalLane="-road3_0" arrivalPos="19.96" arrivalPosLat="0.00" arrivalSpeed="12.29" duration="17.20" routeLength="122.77" waitingTime="0.00" waitingCount="0" stopTime="0.00" timeLoss="6.81" rerouteNo="0" devices="tripinfo_vehicle_68 emissions_vehicle_68 battery_vehicle_68" vType="human" speedFactor="1.04" vaporized="">
        <emissions CO_abs="0" CO2_abs="0" HC_abs="0" PMx_abs="0" NOx_abs="0" fuel_abs="0" electricity_abs="59.505621"/>
    </tripinfo>
    <tripinfo id="vehicle_31" depart="45.20" departLane="road0_0" departPos="4.10" departPosLat="0.00" departSpeed="2.25" departDelay="29.95" arrival="62.40" arrivalLane="-road3_0" arrivalPos="19.96" arrivalPosLat="0.00" arrivalSpeed="12.04" duration="17.20" routeLength="122.77" waitingTime="0.00" waitingCount="0" stopTime="0.00" timeLoss="6.84" rerouteNo="0" devices="tripinfo_vehicle_31 emissions_vehicle_31 battery_vehicle_31" vType="human" speedFactor="1.15" vaporized="">
        <emissions CO_abs="0" CO2_abs="0" HC_abs="0" PMx_abs="0" NOx_abs="0" fuel_abs="0" electricity_abs="59.139700"/>
    </tripinfo>
    <tripinfo id="vehicle_0" depart="34.80" departLane="road3_0" departPos="4.10" departPosLat="0.00" departSpeed="0.55" departDelay="20.75" arrival="64.40" arrivalLane="-road2_0" arrivalPos="19.96" arrivalPosLat="0.00" arrivalSpeed="13.79" duration="29.60" routeLength="122.77" waitingTime="11.20" waitingCount="1" stopTime="0.00" timeLoss="19.17" rerouteNo="1" devices="tripinfo_vehicle_0 routing_vehicle_0 emissions_vehicle_0 battery_vehicle_0" vType="human" speedFactor="1.06" vaporized="">
        <emissions CO_abs="0" CO2_abs="0" HC_abs="0" PMx_abs="0" NOx_abs="0" fuel_abs="0" electricity_abs="76.320916"/>
    </tripinfo>
    <tripinfo id="vehicle_13" depart="30.40" departLane="road3_0" departPos="4.10" departPosLat="0.00" departSpeed="1.94" departDelay="23.86" arrival="64.40" arrivalLane="-road0_0" arrivalPos="19.96" arrivalPosLat="0.00" arrivalSpeed="12.13" duration="34.00" routeLength="289.97" waitingTime="0.00" waitingCount="0" stopTime="0.00" timeLoss="11.77" rerouteNo="1" devices="tripinfo_vehicle_13 routing_vehicle_13 emissions_vehicle_13 battery_vehicle_13" vType="human" speedFactor="1.12" vaporized="">
        <emissions CO_abs="0" CO2_abs="0" HC_abs="0" PMx_abs="0" NOx_abs="0" fuel_abs="0" electricity_abs="101.344695"/>
    </tripinfo>
    <tripinfo id="vehicle_42" depart="35.60" departLane="road0_0" departPos="4.10" departPosLat="0.00" departSpeed="3.30" departDelay="24.11" arrival="64.80" arrivalLane="-road1_0" arrivalPos="19.96" arrivalPosLat="0.00" arrivalSpeed="12.86" duration="29.20" routeLength="289.97" waitingTime="0.00" waitingCount="0" stopTime="0.00" timeLoss="7.15" rerouteNo="0" devices="tripinfo_vehicle_42 emissions_vehicle_42 battery_vehicle_42" vType="human" speedFactor="1.09" vaporized="">
        <emissions CO_abs="0" CO2_abs="0" HC_abs="0" PMx_abs="0" NOx_abs="0" fuel_abs="0" electricity_abs="103.020752"/>
    </tripinfo>
    <tripinfo id="vehicle_45" depart="43.60" departLane="road1_0" departPos="4.10" departPosLat="0.00" departSpeed="1.26" departDelay="35.73" arrival="66.40" arrivalLane="-road0_0" arrivalPos="19.96" arrivalPosLat="0.00" arrivalSpeed="12.84" duration="22.80" routeLength="122.77" waitingTime="0.00" waitingCount="0" stopTime="0.00" timeLoss="12.73" rerouteNo="1" devices="tripinfo_vehicle_45 routing_vehicle_45 emissions_vehicle_45 battery_vehicle_45" vType="human" speedFactor="1.09" vaporized="">
        <emissions CO_abs="0" CO2_abs="0" HC_abs="0" PMx_abs="0" NOx_abs="0" fuel_abs="0" electricity_abs="61.292983"/>
    </tripinfo>
    <tripinfo id="vehicle_71" depart="6.00" departLane="road1_0" departPos="4.10" departPosLat="0.00" departSpeed="0.43" departDelay="1.84" arrival="67.20" arrivalLane="-road3_0" arrivalPos="19.96" arrivalPosLat="0.00" arrivalSpeed="11.98" duration="61.20" routeLength="206.37" waitingTime="30.00" waitingCount="1" stopTime="0.00" timeLoss="44.56" rerouteNo="1" devices="tripinfo_vehicle_71 routing_vehicle_71 emissions_vehicle_71 battery_vehicle_71" vType="human" speedFactor="0.97" vaporized="">
        <emissions CO_abs="0" CO2_abs="0" HC_abs="0" PMx_abs="0" NOx_abs="0" fuel_abs="0" electricity_abs="70.973634"/>
    </tripinfo>
    <tripinfo id="vehicle_21" depart="39.20" departLane="road3_0" departPos="4.10" departPosLat="0.00" departSpeed="1.97" departDelay="20.28" arrival="69.20" arrivalLane="-road2_0" arrivalPos="19.96" arrivalPosLat="0.00" arrivalSpeed="12.43" duration="30.00" routeLength="122.77" waitingTime="9.20" waitingCount="1" stopTime="0.00" timeLoss="19.50" rerouteNo="1" devices="tripinfo_vehicle_21 routing_vehicle_21 emissions_vehicle_21 battery_vehicle_21" vType="human" speedFactor="1.01" vaporized="">
        <emissions CO_abs="0" CO2_abs="0" HC_abs="0" PMx_abs="0" NOx_abs="0" fuel_abs="0" electricity_abs="62.686467"/>
    </tripinfo>
    <tripinfo id="vehicle_26" depart="46.00" departLane="road1_0" departPos="4.10" departPosLat="0.00" departSpeed="2.35" departDelay="36.94" arrival="69.60" arrivalLane="-road0_0" arrivalPos="19.96" arrivalPosLat="0.00" arrivalSpeed="11.18" duration="23.60" routeLength="122.77" waitingTime="0.00" waitingCount="0" stopTime="0.00" timeLoss="12.34" rerouteNo="1" devices="tripinfo_vehicle_26 routing_vehicle_26 emissions_vehicle_26 battery_vehicle_26" vType="human" speedFactor="0.92" vaporized="">
        <emissions CO_abs="0" CO2_abs="0" HC_abs="0" PMx_abs="0" NOx_abs="0" fuel_abs="0" electricity_abs="47.389355"/>
    </tripinfo>
    <tripinfo id="vehicle_59" depart="39.60" departLane="road0_0" departPos="4.10" departPosLat="0.00" departSpeed="2.90" departDelay="26.81" arrival="70.00" arrivalLane="-road1_0" arrivalPos="19.96" arrivalPosLat="0.00" arrivalSpeed="12.38" duration="30.40" routeLength="289.97" waitingTime="0.00" waitingCount="0" stopTime="0.00" timeLoss="7.22" rerouteNo="0" devices="tripinfo_vehicle_59 emissions_vehicle_59 battery_vehicle_59" vType="human" speedFactor="0.97" vaporized="">
        <emissions CO_abs="0" CO2_abs="0" HC_abs="0" PMx_abs="0" NOx_abs="0" fuel_abs="0" electricity_abs="97.203671"/>
    </tripinfo>
    <tripinfo id="vehicle_73" depart="4.00" departLane="road1_0" departPos="4.10" departPosLat="0.00" departSpeed="2.61" departDelay="0.72" arrival="71.60" arrivalLane="-road2_0" arrivalPos="19.96" arrivalPosLat="0.00" arrivalSpeed="11.79" duration="67.60" routeLength="289.97" waitingTime="31.60" waitingCount="1" stopTime="0.00" timeLoss="45.43" rerouteNo="1" devices="tripinfo_vehicle_73 routing_vehicle_73 emissions_vehicle_73 battery_vehicle_73" vType="human" speedFactor="1.06" vaporized="">
        <emissions CO_abs="0" CO2_abs="0" HC_abs="0" PMx_abs="0" NOx_abs="0" fuel_abs="0" electricity_abs="92.236188"/>
    </tripinfo>
    <tripinfo id="vehicle_34" depart="37.20" departLane="road3_0" departPos="4.10" departPosLat="0.00" departSpeed="3.66" departDelay="18.74" arrival="74.80" arrivalLane="-road1_0" arrivalPos="19.96" arrivalPosLat="0.00" arrivalSpeed="11.67" duration="37.60" routeLength="206.37" waitingTime="10.00" waitingCount="1" stopTime="0.00" timeLoss="21.22" rerouteNo="1" devices="tripinfo_vehicle_34 routing_vehicle_34 emissions_vehicle_34 battery_vehicle_34" vType="human" speedFactor="0.99" vaporized="">
        <emissions CO_abs="0" CO2_abs="0" HC_abs="0" PMx_abs="0" NOx_abs="0" fuel_abs="0" electricity_abs="74.198239"/>
    </tripinfo>
    <tripinfo id="vehicle_53" depart="47.60" departLane="road0_0" departPos="4.10" departPosLat="0.00" departSpeed="3.94" departDelay="32.03" arrival="78.40" arrivalLane="-road1_0" arrivalPos="19.96" arrivalPosLat="0.00" arrivalSpeed="12.67" duration="30.80" routeLength="289.97" waitingTime="0.00" waitingCount="0" stopTime="0.00" timeLoss="8.34" rerouteNo="0" devices="tripinfo_vehicle_53 emissions_vehicle_53 battery_vehicle_53" vType="human" speedFactor="1.10" vaporized="">
        <emissions CO_abs="0" CO2_abs="0" HC_abs="0" PMx_abs="0" NOx_abs="0" fuel_abs="0" electricity_abs="98.743758"/>
    </tripinfo>
    <tripinfo id="vehicle_57" depart="50.40" departLane="road1_0" departPos="4.10" departPosLat="0.00" departSpeed="2.26" departDelay="38.66" arrival="78.80" arrivalLane="-road3_0" arrivalPos="19.96" arrivalPosLat="0.00" arrivalSpeed="12.04" duration="28.40" routeLength="206.37" waitingTime="0.00" waitingCount="0" stopTime="0.00" timeLoss="12.26" rerouteNo="1" devices="tripinfo_vehicle_57 routing_vehicle_57 emissions_vehicle_57 battery_vehicle_57" vType="human" speedFactor="1.14" vaporized="">
        <emissions CO_abs="0" CO2_abs="0" HC_abs="0" PMx_abs="0" NOx_abs="0" fuel_abs="0" electricity_abs="74.924858"/>
    </tripinfo>
    <tripinfo id="vehicle_4" depart="48.40" departLane="road1_0" departPos="4.10" departPosLat="0.00" departSpeed="0.43" departDelay="38.97" arrival="80.40" arrivalLane="-road2_0" arrivalPos="19.96" arrivalPosLat="0.00" arrivalSpeed="12.06" duration="32.00" routeLength="289.97" waitingTime="0.00" waitingCount="0" stopTime="0.00" timeLoss="9.48" rerouteNo="1" devices="tripinfo_vehicle_4 routing_vehicle_4 emissions_vehicle_4 battery_vehicle_4" vType="human" speedFactor="1.03" vaporized="">
        <emissions CO_abs="0" CO2_abs="0" HC_abs="0" PMx_abs="0" NOx_abs="0" fuel_abs="0" electricity_abs="96.658454"/>
    </tripinfo>
    <tripinfo id="vehicle_33" depart="26.40" departLane="road2_0" departPos="4.10" departPosLat="0.00" departSpeed="2.36" departDelay="7.17" arrival="80.80" arrivalLane="-road3_0" arrivalPos="19.96" arrivalPosLat="0.00" arrivalSpeed="12.55" duration="54.40" routeLength="289.97" waitingTime="18.40" waitingCount="2" stopTime="0.00" timeLoss="32.34" rerouteNo="1" devices="tripinfo_vehicle_33 routing_vehicle_33 emissions_vehicle_33 battery_vehicle_33" vType="human" speedFactor="1.17" vaporized="">
        <emissions CO_abs="0" CO2_abs="0" HC_abs="0" PMx_abs="0" NOx_abs="0" fuel_abs="0" electricity_abs="98.482420"/>
    </tripinfo>