<?xml version="1.0" encoding="UTF-8"?>

<!-- generated on 2024-11-01 21:41:18 by Eclipse SUMO sumo Version v1_20_0+0085-e155ab8699b
<configuration xmlns:xsi="http://www.w3.org/2001/XMLSchema-instance" xsi:noNamespaceSchemaLocation="http://sumo.dlr.de/xsd/sumoConfiguration.xsd">

    <input>
        <net-file value="../networks/roundabout.net.xml"/>
        <route-files value="../networks/routes1.rou.xml"/>
    </input>

    <output>
        <output-prefix value="406-"/>
        <battery-output.precision value="4"/>
        <tripinfo-output value="../networks/output_data/output_default/tripinfo/tripinfo-output.xml"/>
        <collision-output value="../networks/output_data/output_default/collision/collision-output.xml"/>
    </output>

    <time>
        <begin value="0"/>
        <step-length value="0.4"/>
    </time>

    <processing>
        <step-method.ballistic value="true"/>
        <lateral-resolution value="3.2"/>
        <collision.action value="warn"/>
        <collision.check-junctions value="True"/>
        <collision.mingap-factor value="0"/>
        <time-to-teleport value="-1"/>
        <random-depart-offset value="5"/>
    </processing>

    <report>
        <no-warnings value="True"/>
        <no-step-log value="True"/>
    </report>

    <emissions>
        <device.emissions.probability value="1"/>
    </emissions>

    <battery>
        <device.battery.probability value="1"/>
    </battery>

    <traci_server>
        <remote-port value="58861"/>
    </traci_server>

    <gui_only>
        <quit-on-end value="True"/>
        <start value="True"/>
    </gui_only>

</configuration>
-->

<tripinfos xmlns:xsi="http://www.w3.org/2001/XMLSchema-instance" xsi:noNamespaceSchemaLocation="http://sumo.dlr.de/xsd/tripinfo_file.xsd">
    <tripinfo id="vehicle_11" depart="1.20" departLane="road1_0" departPos="4.10" departPosLat="0.00" departSpeed="5.98" departDelay="0.05" arrival="15.20" arrivalLane="-road0_0" arrivalPos="19.96" arrivalPosLat="0.00" arrivalSpeed="13.01" duration="14.00" routeLength="122.77" waitingTime="0.00" waitingCount="0" stopTime="0.00" timeLoss="3.84" rerouteNo="1" devices="tripinfo_vehicle_11 routing_vehicle_11 emissions_vehicle_11 battery_vehicle_11" vType="human" speedFactor="1.03" vaporized="">
        <emissions CO_abs="0" CO2_abs="0" HC_abs="0" PMx_abs="0" NOx_abs="0" fuel_abs="0" electricity_abs="61.184560"/>
    </tripinfo>
    <tripinfo id="vehicle_39" depart="0.40" departLane="road2_0" departPos="4.10" departPosLat="0.00" departSpeed="5.75" departDelay="0.25" arrival="16.40" arrivalLane="-road1_0" arrivalPos="19.96" arrivalPosLat="0.00" arrivalSpeed="12.30" duration="16.00" routeLength="122.77" waitingTime="0.00" waitingCount="0" stopTime="0.00" timeLoss="4.44" rerouteNo="1" devices="tripinfo_vehicle_39 routing_vehicle_39 emissions_vehicle_39 battery_vehicle_39" vType="human" speedFactor="0.90" vaporized="">
        <emissions CO_abs="0" CO2_abs="0" HC_abs="0" PMx_abs="0" NOx_abs="0" fuel_abs="0" electricity_abs="52.804208"/>
    </tripinfo>
    <tripinfo id="vehicle_15" depart="4.40" departLane="road0_0" departPos="4.10" departPosLat="0.00" departSpeed="2.79" departDelay="0.35" arrival="21.20" arrivalLane="-road3_0" arrivalPos="19.96" arrivalPosLat="0.00" arrivalSpeed="11.11" duration="16.80" routeLength="122.77" waitingTime="0.00" waitingCount="0" stopTime="0.00" timeLoss="5.59" rerouteNo="0" devices="tripinfo_vehicle_15 emissions_vehicle_15 battery_vehicle_15" vType="human" speedFactor="0.93" vaporized="">
        <emissions CO_abs="0" CO2_abs="0" HC_abs="0" PMx_abs="0" NOx_abs="0" fuel_abs="0" electricity_abs="52.876802"/>
    </tripinfo>
    <tripinfo id="vehicle_61" depart="0.40" departLane="road3_0" departPos="4.10" departPosLat="0.00" departSpeed="0.10" departDelay="0.04" arrival="22.40" arrivalLane="-road1_0" arrivalPos="19.96" arrivalPosLat="0.00" arrivalSpeed="12.68" duration="22.00" routeLength="206.37" waitingTime="0.00" waitingCount="0" stopTime="0.00" timeLoss="5.53" rerouteNo="1" devices="tripinfo_vehicle_61 routing_vehicle_61 emissions_vehicle_61 battery_vehicle_61" vType="human" speedFactor="1.12" vaporized="">
        <emissions CO_abs="0" CO2_abs="0" HC_abs="0" PMx_abs="0" NOx_abs="0" fuel_abs="0" electricity_abs="87.657152"/>
    </tripinfo>
    <tripinfo id="vehicle_65" depart="4.80" departLane="road1_0" departPos="4.10" departPosLat="0.00" departSpeed="2.74" departDelay="0.28" arrival="22.40" arrivalLane="-road0_0" arrivalPos="19.96" arrivalPosLat="0.00" arrivalSpeed="11.98" duration="17.60" routeLength="122.77" waitingTime="0.00" waitingCount="0" stopTime="0.00" timeLoss="5.66" rerouteNo="1" devices="tripinfo_vehicle_65 routing_vehicle_65 emissions_vehicle_65 battery_vehicle_65" vType="human" speedFactor="0.88" vaporized="">
        <emissions CO_abs="0" CO2_abs="0" HC_abs="0" PMx_abs="0" NOx_abs="0" fuel_abs="0" electricity_abs="56.077224"/>
    </tripinfo>
    <tripinfo id="vehicle_19" depart="7.60" departLane="road0_0" departPos="4.10" departPosLat="0.00" departSpeed="3.67" departDelay="0.26" arrival="23.20" arrivalLane="-road3_0" arrivalPos="19.96" arrivalPosLat="0.00" arrivalSpeed="12.87" duration="15.60" routeLength="122.77" waitingTime="0.00" waitingCount="0" stopTime="0.00" timeLoss="5.39" rerouteNo="0" devices="tripinfo_vehicle_19 emissions_vehicle_19 battery_vehicle_19" vType="human" speedFactor="1.16" vaporized="">
        <emissions CO_abs="0" CO2_abs="0" HC_abs="0" PMx_abs="0" NOx_abs="0" fuel_abs="0" electricity_abs="63.991009"/>
    </tripinfo>
    <tripinfo id="vehicle_70" depart="2.00" departLane="road2_0" departPos="4.10" departPosLat="0.00" departSpeed="1.52" departDelay="0.38" arrival="26.00" arrivalLane="-road0_0" arrivalPos="19.96" arrivalPosLat="0.00" arrivalSpeed="12.51" duration="24.00" routeLength="206.37" waitingTime="0.00" waitingCount="0" stopTime="0.00" timeLoss="7.59" rerouteNo="1" devices="tripinfo_vehicle_70 routing_vehicle_70 emissions_vehicle_70 battery_vehicle_70" vType="human" speedFactor="1.02" vaporized="">
        <emissions CO_abs="0" CO2_abs="0" HC_abs="0" PMx_abs="0" NOx_abs="0" fuel_abs="0" electricity_abs="81.423727"/>
    </tripinfo>
    <tripinfo id="vehicle_42" depart="2.00" departLane="road0_0" departPos="4.10" departPosLat="0.00" departSpeed="9.75" departDelay="0.11" arrival="28.80" arrivalLane="-road1_0" arrivalPos="19.96" arrivalPosLat="0.00" arrivalSpeed="12.30" duration="26.80" routeLength="289.97" waitingTime="0.00" waitingCount="0" stopTime="0.00" timeLoss="4.53" rerouteNo="0" devices="tripinfo_vehicle_42 emissions_vehicle_42 battery_vehicle_42" vType="human" speedFactor="1.09" vaporized="">
        <emissions CO_abs="0" CO2_abs="0" HC_abs="0" PMx_abs="0" NOx_abs="0" fuel_abs="0" electricity_abs="82.586524"/>
    </tripinfo>
    <tripinfo id="vehicle_53" depart="2.80" departLane="road0_0" departPos="4.10" departPosLat="0.00" departSpeed="3.20" departDelay="0.92" arrival="31.20" arrivalLane="-road1_0" arrivalPos="19.96" arrivalPosLat="0.00" arrivalSpeed="12.39" duration="28.40" routeLength="289.97" waitingTime="0.00" waitingCount="0" stopTime="0.00" timeLoss="6.10" rerouteNo="0" devices="tripinfo_vehicle_53 emissions_vehicle_53 battery_vehicle_53" vType="human" speedFactor="1.10" vaporized="">
        <emissions CO_abs="0" CO2_abs="0" HC_abs="0" PMx_abs="0" NOx_abs="0" fuel_abs="0" electricity_abs="103.007242"/>
    </tripinfo>
    <tripinfo id="vehicle_14" depart="9.60" departLane="road1_0" departPos="4.10" departPosLat="0.00" departSpeed="2.80" departDelay="0.17" arrival="31.60" arrivalLane="-road0_0" arrivalPos="19.96" arrivalPosLat="0.00" arrivalSpeed="11.13" duration="22.00" routeLength="122.77" waitingTime="4.40" waitingCount="1" stopTime="0.00" timeLoss="11.47" rerouteNo="1" devices="tripinfo_vehicle_14 routing_vehicle_14 emissions_vehicle_14 battery_vehicle_14" vType="human" speedFactor="0.99" vaporized="">
        <emissions CO_abs="0" CO2_abs="0" HC_abs="0" PMx_abs="0" NOx_abs="0" fuel_abs="0" electricity_abs="52.106579"/>
    </tripinfo>
    <tripinfo id="vehicle_48" depart="2.40" departLane="road1_0" departPos="4.10" departPosLat="0.00" departSpeed="0.14" departDelay="0.95" arrival="33.60" arrivalLane="-road2_0" arrivalPos="19.96" arrivalPosLat="0.00" arrivalSpeed="11.20" duration="31.20" routeLength="289.97" waitingTime="0.00" waitingCount="0" stopTime="0.00" timeLoss="5.56" rerouteNo="1" devices="tripinfo_vehicle_48 routing_vehicle_48 emissions_vehicle_48 battery_vehicle_48" vType="human" speedFactor="0.88" vaporized="">
        <emissions CO_abs="0" CO2_abs="0" HC_abs="0" PMx_abs="0" NOx_abs="0" fuel_abs="0" electricity_abs="89.915008"/>
    </tripinfo>
    <tripinfo id="vehicle_20" depart="8.80" departLane="road0_0" departPos="4.10" departPosLat="0.00" departSpeed="0.18" departDelay="1.52" arrival="35.60" arrivalLane="-road2_0" arrivalPos="19.96" arrivalPosLat="0.00" arrivalSpeed="11.99" duration="26.80" routeLength="206.37" waitingTime="0.00" waitingCount="0" stopTime="0.00" timeLoss="10.45" rerouteNo="0" devices="tripinfo_vehicle_20 emissions_vehicle_20 battery_vehicle_20" vType="human" speedFactor="1.02" vaporized="">
        <emissions CO_abs="0" CO2_abs="0" HC_abs="0" PMx_abs="0" NOx_abs="0" fuel_abs="0" electricity_abs="73.570383"/>
    </tripinfo>
    <tripinfo id="vehicle_51" depart="8.00" departLane="road2_0" departPos="4.10" departPosLat="0.00" departSpeed="1.82" departDelay="1.33" arrival="35.60" arrivalLane="-road1_0" arrivalPos="19.96" arrivalPosLat="0.00" arrivalSpeed="12.78" duration="27.60" routeLength="122.77" waitingTime="8.00" waitingCount="1" stopTime="0.00" timeLoss="17.57" rerouteNo="1" devices="tripinfo_vehicle_51 routing_vehicle_51 emissions_vehicle_51 battery_vehicle_51" vType="human" speedFactor="1.17" vaporized="">
        <emissions CO_abs="0" CO2_abs="0" HC_abs="0" PMx_abs="0" NOx_abs="0" fuel_abs="0" electricity_abs="68.638815"/>
    </tripinfo>
    <tripinfo id="vehicle_69" depart="3.60" departLane="road2_0" departPos="4.10" departPosLat="0.00" departSpeed="4.65" departDelay="0.46" arrival="35.60" arrivalLane="-road3_0" arrivalPos="19.96" arrivalPosLat="0.00" arrivalSpeed="12.90" duration="32.00" routeLength="289.97" waitingTime="0.00" waitingCount="0" stopTime="0.00" timeLoss="9.80" rerouteNo="1" devices="tripinfo_vehicle_69 routing_vehicle_69 emissions_vehicle_69 battery_vehicle_69" vType="human" speedFactor="1.02" vaporized="">
        <emissions CO_abs="0" CO2_abs="0" HC_abs="0" PMx_abs="0" NOx_abs="0" fuel_abs="0" electricity_abs="96.013584"/>
    </tripinfo>
    <tripinfo id="vehicle_49" depart="2.40" departLane="road3_0" departPos="4.10" departPosLat="0.00" departSpeed="3.55" departDelay="1.87" arrival="36.40" arrivalLane="-road0_0" arrivalPos="19.96" arrivalPosLat="0.00" arrivalSpeed="11.04" duration="34.00" routeLength="289.97" waitingTime="0.00" waitingCount="0" stopTime="0.00" timeLoss="7.89" rerouteNo="1" devices="tripinfo_vehicle_49 routing_vehicle_49 emissions_vehicle_49 battery_vehicle_49" vType="human" speedFactor="0.85" vaporized="">
        <emissions CO_abs="0" CO2_abs="0" HC_abs="0" PMx_abs="0" NOx_abs="0" fuel_abs="0" electricity_abs="79.225469"/>
    </tripinfo>
    <tripinfo id="vehicle_63" depart="10.80" departLane="road0_0" departPos="4.10" departPosLat="0.00" departSpeed="3.42" departDelay="3.19" arrival="38.00" arrivalLane="-road2_0" arrivalPos="19.96" arrivalPosLat="0.00" arrivalSpeed="12.45" duration="27.20" routeLength="206.37" waitingTime="0.00" waitingCount="0" stopTime="0.00" timeLoss="10.56" rerouteNo="0" devices="tripinfo_vehicle_63 emissions_vehicle_63 battery_vehicle_63" vType="human" speedFactor="0.99" vaporized="">
        <emissions CO_abs="0" CO2_abs="0" HC_abs="0" PMx_abs="0" NOx_abs="0" fuel_abs="0" electricity_abs="73.050504"/>
    </tripinfo>
    <tripinfo id="vehicle_60" depart="24.00" departLane="road2_0" departPos="4.10" departPosLat="0.00" departSpeed="0.60" departDelay="16.08" arrival="40.40" arrivalLane="-road1_0" arrivalPos="19.96" arrivalPosLat="0.00" arrivalSpeed="12.63" duration="16.40" routeLength="122.77" waitingTime="0.00" waitingCount="0" stopTime="0.00" timeLoss="5.95" rerouteNo="1" devices="tripinfo_vehicle_60 routing_vehicle_60 emissions_vehicle_60 battery_vehicle_60" vType="human" speedFactor="1.08" vaporized="">
        <emissions CO_abs="0" CO2_abs="0" HC_abs="0" PMx_abs="0" NOx_abs="0" fuel_abs="0" electricity_abs="67.728547"/>
    </tripinfo>
    <tripinfo id="vehicle_64" depart="12.80" departLane="road0_0" departPos="4.10" departPosLat="0.00" departSpeed="1.80" departDelay="4.25" arrival="40.80" arrivalLane="-road2_0" arrivalPos="19.96" arrivalPosLat="0.00" arrivalSpeed="12.14" duration="28.00" routeLength="206.37" waitingTime="0.00" waitingCount="0" stopTime="0.00" timeLoss="10.31" rerouteNo="0" devices="tripinfo_vehicle_64 emissions_vehicle_64 battery_vehicle_64" vType="human" speedFactor="0.94" vaporized="">
        <emissions CO_abs="0" CO2_abs="0" HC_abs="0" PMx_abs="0" NOx_abs="0" fuel_abs="0" electricity_abs="71.166594"/>
    </tripinfo>
    <tripinfo id="vehicle_50" depart="11.60" departLane="road1_0" departPos="4.10" departPosLat="0.00" departSpeed="3.51" departDelay="0.30" arrival="42.00" arrivalLane="-road3_0" arrivalPos="19.96" arrivalPosLat="0.00" arrivalSpeed="11.44" duration="30.40" routeLength="206.37" waitingTime="2.80" waitingCount="1" stopTime="0.00" timeLoss="11.61" rerouteNo="1" devices="tripinfo_vehicle_50 routing_vehicle_50 emissions_vehicle_50 battery_vehicle_50" vType="human" speedFactor="0.85" vaporized="">
        <emissions CO_abs="0" CO2_abs="0" HC_abs="0" PMx_abs="0" NOx_abs="0" fuel_abs="0" electricity_abs="66.608156"/>
    </tripinfo>
    <tripinfo id="vehicle_35" depart="15.60" departLane="road0_0" departPos="4.10" departPosLat="0.00" departSpeed="2.22" departDelay="6.31" arrival="42.80" arrivalLane="-road2_0" arrivalPos="19.96" arrivalPosLat="0.00" arrivalSpeed="13.60" duration="27.20" routeLength="206.37" waitingTime="0.00" waitingCount="0" stopTime="0.00" timeLoss="10.59" rerouteNo="0" devices="tripinfo_vehicle_35 emissions_vehicle_35 battery_vehicle_35" vType="human" speedFactor="1.02" vaporized="">
        <emissions CO_abs="0" CO2_abs="0" HC_abs="0" PMx_abs="0" NOx_abs="0" fuel_abs="0" electricity_abs="81.448170"/>
    </tripinfo>
    <tripinfo id="vehicle_59" depart="29.20" departLane="road2_0" departPos="4.10" departPosLat="0.00" departSpeed="3.46" departDelay="19.46" arrival="45.60" arrivalLane="-road1_0" arrivalPos="19.96" arrivalPosLat="0.00" arrivalSpeed="11.58" duration="16.40" routeLength="122.77" waitingTime="0.00" waitingCount="0" stopTime="0.00" timeLoss="5.77" rerouteNo="1" devices="tripinfo_vehicle_59 routing_vehicle_59 emissions_vehicle_59 battery_vehicle_59" vType="human" speedFactor="0.97" vaporized="">
        <emissions CO_abs="0" CO2_abs="0" HC_abs="0" PMx_abs="0" NOx_abs="0" fuel_abs="0" electricity_abs="53.272560"/>
    </tripinfo>
    <tripinfo id="vehicle_23" depart="13.20" departLane="road1_0" departPos="4.10" departPosLat="0.00" departSpeed="2.23" departDelay="0.85" arrival="46.80" arrivalLane="-road3_0" arrivalPos="19.96" arrivalPosLat="0.00" arrivalSpeed="12.05" duration="33.60" routeLength="206.37" waitingTime="2.00" waitingCount="1" stopTime="0.00" timeLoss="15.02" rerouteNo="1" devices="tripinfo_vehicle_23 routing_vehicle_23 emissions_vehicle_23 battery_vehicle_23" vType="human" speedFactor="0.89" vaporized="">
        <emissions CO_abs="0" CO2_abs="0" HC_abs="0" PMx_abs="0" NOx_abs="0" fuel_abs="0" electricity_abs="71.145796"/>
    </tripinfo>
    <tripinfo id="vehicle_67" depart="30.80" departLane="road2_0" departPos="4.10" departPosLat="0.00" departSpeed="2.36" departDelay="19.66" arrival="48.40" arrivalLane="-road1_0" arrivalPos="19.96" arrivalPosLat="0.00" arrivalSpeed="11.67" duration="17.60" routeLength="122.77" waitingTime="0.00" waitingCount="0" stopTime="0.00" timeLoss="6.45" rerouteNo="1" devices="tripinfo_vehicle_67 routing_vehicle_67 emissions_vehicle_67 battery_vehicle_67" vType="human" speedFactor="0.91" vaporized="">
        <emissions CO_abs="0" CO2_abs="0" HC_abs="0" PMx_abs="0" NOx_abs="0" fuel_abs="0" electricity_abs="54.279821"/>
    </tripinfo>
    <tripinfo id="vehicle_32" depart="23.20" departLane="road1_0" departPos="4.10" departPosLat="0.00" departSpeed="1.96" departDelay="5.98" arrival="48.80" arrivalLane="-road3_0" arrivalPos="19.96" arrivalPosLat="0.00" arrivalSpeed="12.76" duration="25.60" routeLength="206.37" waitingTime="0.00" waitingCount="0" stopTime="0.00" timeLoss="9.03" rerouteNo="1" devices="tripinfo_vehicle_32 routing_vehicle_32 emissions_vehicle_32 battery_vehicle_32" vType="human" speedFactor="1.01" vaporized="">
        <emissions CO_abs="0" CO2_abs="0" HC_abs="0" PMx_abs="0" NOx_abs="0" fuel_abs="0" electricity_abs="81.478720"/>
    </tripinfo>
    <tripinfo id="vehicle_56" depart="33.20" departLane="road3_0" departPos="4.10" departPosLat="0.00" departSpeed="0.99" departDelay="21.81" arrival="50.80" arrivalLane="-road2_0" arrivalPos="19.96" arrivalPosLat="0.00" arrivalSpeed="11.57" duration="17.60" routeLength="122.77" waitingTime="0.00" waitingCount="0" stopTime="0.00" timeLoss="5.93" rerouteNo="1" devices="tripinfo_vehicle_56 routing_vehicle_56 emissions_vehicle_56 battery_vehicle_56" vType="human" speedFactor="0.90" vaporized="">
        <emissions CO_abs="0" CO2_abs="0" HC_abs="0" PMx_abs="0" NOx_abs="0" fuel_abs="0" electricity_abs="56.469948"/>
    </tripinfo>
    <tripinfo id="vehicle_7" depart="6.00" departLane="road2_0" departPos="4.10" departPosLat="0.00" departSpeed="3.67" departDelay="0.11" arrival="51.20" arrivalLane="-road3_0" arrivalPos="19.96" arrivalPosLat="0.00" arrivalSpeed="10.80" duration="45.20" routeLength="289.97" waitingTime="9.20" waitingCount="1" stopTime="0.00" timeLoss="20.20" rerouteNo="1" devices="tripinfo_vehicle_7 routing_vehicle_7 emissions_vehicle_7 battery_vehicle_7" vType="human" speedFactor="0.89" vaporized="">
        <emissions CO_abs="0" CO2_abs="0" HC_abs="0" PMx_abs="0" NOx_abs="0" fuel_abs="0" electricity_abs="81.088598"/>
    </tripinfo>
    <tripinfo id="vehicle_0" depart="20.40" departLane="road1_0" departPos="4.10" departPosLat="0.00" departSpeed="1.18" departDelay="4.38" arrival="52.80" arrivalLane="-road2_0" arrivalPos="19.96" arrivalPosLat="0.00" arrivalSpeed="11.74" duration="32.40" routeLength="289.97" waitingTime="0.00" waitingCount="0" stopTime="0.00" timeLoss="10.19" rerouteNo="1" devices="tripinfo_vehicle_0 routing_vehicle_0 emissions_vehicle_0 battery_vehicle_0" vType="human" speedFactor="1.06" vaporized="">
        <emissions CO_abs="0" CO2_abs="0" HC_abs="0" PMx_abs="0" NOx_abs="0" fuel_abs="0" electricity_abs="95.852159"/>
    </tripinfo>
    <tripinfo id="vehicle_41" depart="25.60" departLane="road1_0" departPos="4.10" departPosLat="0.00" departSpeed="1.69" departDelay="7.02" arrival="53.60" arrivalLane="-road3_0" arrivalPos="19.96" arrivalPosLat="0.00" arrivalSpeed="12.64" duration="28.00" routeLength="206.37" waitingTime="0.00" waitingCount="0" stopTime="0.00" timeLoss="10.93" rerouteNo="1" devices="tripinfo_vehicle_41 routing_vehicle_41 emissions_vehicle_41 battery_vehicle_41" vType="human" speedFactor="0.96" vaporized="">
        <emissions CO_abs="0" CO2_abs="0" HC_abs="0" PMx_abs="0" NOx_abs="0" fuel_abs="0" electricity_abs="76.095766"/>
    </tripinfo>
    <tripinfo id="vehicle_26" depart="11.60" departLane="road3_0" departPos="4.10" departPosLat="0.00" departSpeed="1.71" departDelay="0.86" arrival="55.60" arrivalLane="-road1_0" arrivalPos="19.96" arrivalPosLat="0.00" arrivalSpeed="11.83" duration="44.00" routeLength="206.37" waitingTime="15.20" waitingCount="1" stopTime="0.00" timeLoss="25.98" rerouteNo="1" devices="tripinfo_vehicle_26 routing_vehicle_26 emissions_vehicle_26 battery_vehicle_26" vType="human" speedFactor="0.92" vaporized="">
        <emissions CO_abs="0" CO2_abs="0" HC_abs="0" PMx_abs="0" NOx_abs="0" fuel_abs="0" electricity_abs="78.128182"/>
    </tripinfo>
    <tripinfo id="vehicle_18" depart="10.80" departLane="road2_0" departPos="4.10" departPosLat="0.00" departSpeed="1.54" departDelay="2.99" arrival="56.40" arrivalLane="-road3_0" arrivalPos="19.96" arrivalPosLat="0.00" arrivalSpeed="11.71" duration="45.60" routeLength="289.97" waitingTime="7.20" waitingCount="1" stopTime="0.00" timeLoss="21.61" rerouteNo="1" devices="tripinfo_vehicle_18 routing_vehicle_18 emissions_vehicle_18 battery_vehicle_18" vType="human" speedFactor="0.94" vaporized="">
        <emissions CO_abs="0" CO2_abs="0" HC_abs="0" PMx_abs="0" NOx_abs="0" fuel_abs="0" electricity_abs="91.707756"/>
    </tripinfo>
    <tripinfo id="vehicle_31" depart="38.00" departLane="road3_0" departPos="4.10" departPosLat="0.00" departSpeed="2.74" departDelay="22.84" arrival="56.80" arrivalLane="-road2_0" arrivalPos="19.96" arrivalPosLat="0.00" arrivalSpeed="12.77" duration="18.80" routeLength="122.77" waitingTime="0.00" waitingCount="0" stopTime="0.00" timeLoss="8.73" rerouteNo="1" devices="tripinfo_vehicle_31 routing_vehicle_31 emissions_vehicle_31 battery_vehicle_31" vType="human" speedFactor="1.15" vaporized="">
        <emissions CO_abs="0" CO2_abs="0" HC_abs="0" PMx_abs="0" NOx_abs="0" fuel_abs="0" electricity_abs="61.637611"/>
    </tripinfo>
    <tripinfo id="vehicle_9" depart="33.20" departLane="road1_0" departPos="4.10" departPosLat="0.00" departSpeed="1.26" departDelay="9.66" arrival="58.40" arrivalLane="-road0_0" arrivalPos="19.96" arrivalPosLat="0.00" arrivalSpeed="10.93" duration="25.20" routeLength="122.77" waitingTime="3.20" waitingCount="1" stopTime="0.00" timeLoss="12.77" rerouteNo="1" devices="tripinfo_vehicle_9 routing_vehicle_9 emissions_vehicle_9 battery_vehicle_9" vType="human" speedFactor="0.86" vaporized="">
        <emissions CO_abs="0" CO2_abs="0" HC_abs="0" PMx_abs="0" NOx_abs="0" fuel_abs="0" electricity_abs="52.486195"/>
    </tripinfo>
    <tripinfo id="vehicle_36" depart="40.00" departLane="road3_0" departPos="4.10" departPosLat="0.00" departSpeed="2.38" departDelay="24.73" arrival="59.60" arrivalLane="-road2_0" arrivalPos="19.96" arrivalPosLat="0.00" arrivalSpeed="11.48" duration="19.60" routeLength="122.77" waitingTime="0.00" waitingCount="0" stopTime="0.00" timeLoss="8.94" rerouteNo="1" devices="tripinfo_vehicle_36 routing_vehicle_36 emissions_vehicle_36 battery_vehicle_36" vType="human" speedFactor="0.97" vaporized="">
        <emissions CO_abs="0" CO2_abs="0" HC_abs="0" PMx_abs="0" NOx_abs="0" fuel_abs="0" electricity_abs="51.332672"/>
    </tripinfo>
    <tripinfo id="vehicle_79" depart="26.80" departLane="road2_0" departPos="4.10" departPosLat="0.00" departSpeed="1.56" departDelay="18.46" arrival="60.00" arrivalLane="-road3_0" arrivalPos="19.96" arrivalPosLat="0.00" arrivalSpeed="12.32" duration="33.20" routeLength="289.97" waitingTime="0.00" waitingCount="0" stopTime="0.00" timeLoss="10.63" rerouteNo="1" devices="tripinfo_vehicle_79 routing_vehicle_79 emissions_vehicle_79 battery_vehicle_79" vType="human" speedFactor="1.09" vaporized="">
        <emissions CO_abs="0" CO2_abs="0" HC_abs="0" PMx_abs="0" NOx_abs="0" fuel_abs="0" electricity_abs="95.786235"/>
    </tripinfo>
    <tripinfo id="vehicle_46" depart="8.00" departLane="road3_0" departPos="4.10" departPosLat="0.00" departSpeed="4.30" departDelay="0.40" arrival="60.40" arrivalLane="-road0_0" arrivalPos="19.96" arrivalPosLat="0.00" arrivalSpeed="11.74" duration="52.40" routeLength="289.97" waitingTime="17.60" waitingCount="1" stopTime="0.00" timeLoss="30.27" rerouteNo="1" devices="tripinfo_vehicle_46 routing_vehicle_46 emissions_vehicle_46 battery_vehicle_46" vType="human" speedFactor="1.00" vaporized="">
        <emissions CO_abs="0" CO2_abs="0" HC_abs="0" PMx_abs="0" NOx_abs="0" fuel_abs="0" electricity_abs="89.428819"/>
    </tripinfo>
    <tripinfo id="vehicle_6" depart="30.80" departLane="road1_0" departPos="4.10" departPosLat="0.00" departSpeed="2.86" departDelay="8.66" arrival="62.40" arrivalLane="-road3_0" arrivalPos="19.96" arrivalPosLat="0.00" arrivalSpeed="11.87" duration="31.60" routeLength="206.37" waitingTime="4.00" waitingCount="1" stopTime="0.00" timeLoss="15.51" rerouteNo="1" devices="tripinfo_vehicle_6 routing_vehicle_6 emissions_vehicle_6 battery_vehicle_6" vType="human" speedFactor="1.05" vaporized="">
        <emissions CO_abs="0" CO2_abs="0" HC_abs="0" PMx_abs="0" NOx_abs="0" fuel_abs="0" electricity_abs="76.720429"/>
    </tripinfo>
    <tripinfo id="vehicle_16" depart="37.20" departLane="road1_0" departPos="4.10" departPosLat="0.00" departSpeed="1.67" departDelay="13.87" arrival="62.80" arrivalLane="-road0_0" arrivalPos="19.96" arrivalPosLat="0.00" arrivalSpeed="11.78" duration="25.60" routeLength="122.77" waitingTime="2.40" waitingCount="1" stopTime="0.00" timeLoss="13.97" rerouteNo="1" devices="tripinfo_vehicle_16 routing_vehicle_16 emissions_vehicle_16 battery_vehicle_16" vType="human" speedFactor="0.88" vaporized="">
        <emissions CO_abs="0" CO2_abs="0" HC_abs="0" PMx_abs="0" NOx_abs="0" fuel_abs="0" electricity_abs="52.643456"/>
    </tripinfo>
    <tripinfo id="vehicle_21" depart="33.20" departLane="road2_0" departPos="4.10" departPosLat="0.00" departSpeed="2.91" departDelay="20.77" arrival="64.80" arrivalLane="-road3_0" arrivalPos="19.96" arrivalPosLat="0.00" arrivalSpeed="11.91" duration="31.60" routeLength="289.97" waitingTime="0.00" waitingCount="0" stopTime="0.00" timeLoss="9.27" rerouteNo="1" devices="tripinfo_vehicle_21 routing_vehicle_21 emissions_vehicle_21 battery_vehicle_21" vType="human" speedFactor="1.01" vaporized="">
        <emissions CO_abs="0" CO2_abs="0" HC_abs="0" PMx_abs="0" NOx_abs="0" fuel_abs="0" electricity_abs="92.204818"/>
    </tripinfo>
    <tripinfo id="rl_0" depart="46.80" departLane="road3_0" departPos="4.10" departPosLat="0.00" departSpeed="3.16" departDelay="26.96" arrival="64.80" arrivalLane="-road2_0" arrivalPos="19.96" arrivalPosLat="0.00" arrivalSpeed="12.03" duration="18.00" routeLength="122.77" waitingTime="0.00" waitingCount="0" stopTime="0.00" timeLoss="7.91" rerouteNo="1" devices="tripinfo_rl_0 routing_rl_0 emissions_rl_0 battery_rl_0 driverstaterl_0" vType="rlAnget" speedFactor="1.03" vaporized="">
        <emissions CO_abs="0" CO2_abs="0" HC_abs="0" PMx_abs="0" NOx_abs="0" fuel_abs="0" electricity_abs="54.862062"/>
    </tripinfo>
    <tripinfo id="vehicle_47" depart="9.60" departLane="road3_0" departPos="4.10" departPosLat="0.00" departSpeed="4.32" departDelay="0.15" arrival="65.60" arrivalLane="-road0_0" arrivalPos="19.96" arrivalPosLat="0.00" arrivalSpeed="12.06" duration="56.00" routeLength="289.97" waitingTime="17.20" waitingCount="1" stopTime="0.00" timeLoss="31.36" rerouteNo="1" devices="tripinfo_vehicle_47 routing_vehicle_47 emissions_vehicle_47 battery_vehicle_47" vType="human" speedFactor="0.90" vaporized="">
        <emissions CO_abs="0" CO2_abs="0" HC_abs="0" PMx_abs="0" NOx_abs="0" fuel_abs="0" electricity_abs="85.281654"/>
    </tripinfo>
    <tripinfo id="vehicle_43" depart="18.00" departLane="road0_0" departPos="4.10" departPosLat="0.00" departSpeed="4.21" departDelay="7.46" arrival="67.20" arrivalLane="-road3_0" arrivalPos="19.96" arrivalPosLat="0.00" arrivalSpeed="10.76" duration="49.20" routeLength="122.77" waitingTime="28.40" waitingCount="2" stopTime="0.00" timeLoss="39.05" rerouteNo="0" devices="tripinfo_vehicle_43 emissions_vehicle_43 battery_vehicle_43" vType="human" speedFactor="1.04" vaporized="">
        <emissions CO_abs="0" CO2_abs="0" HC_abs="0" PMx_abs="0" NOx_abs="0" fuel_abs="0" electricity_abs="44.606311"/>
    </tripinfo>
    <tripinfo id="vehicle_44" depart="28.00" departLane="road1_0" departPos="4.10" departPosLat="0.00" departSpeed="0.84" departDelay="8.68" arrival="67.20" arrivalLane="-road2_0" arrivalPos="19.96" arrivalPosLat="0.00" arrivalSpeed="12.37" duration="39.20" routeLength="289.97" waitingTime="0.00" waitingCount="0" stopTime="0.00" timeLoss="16.66" rerouteNo="1" devices="tripinfo_vehicle_44 routing_vehicle_44 emissions_vehicle_44 battery_vehicle_44" vType="human" speedFactor="1.04" vaporized="">
        <emissions CO_abs="0" CO2_abs="0" HC_abs="0" PMx_abs="0" NOx_abs="0" fuel_abs="0" electricity_abs="94.586755"/>
    </tripinfo>
    <tripinfo id="vehicle_37" depart="49.60" departLane="road1_0" departPos="4.10" departPosLat="0.00" departSpeed="2.27" departDelay="24.08" arrival="68.40" arrivalLane="-road0_0" arrivalPos="19.96" arrivalPosLat="0.00" arrivalSpeed="12.72" duration="18.80" routeLength="122.77" waitingTime="0.00" waitingCount="0" stopTime="0.00" timeLoss="8.57" rerouteNo="1" devices="tripinfo_vehicle_37 routing_vehicle_37 emissions_vehicle_37 battery_vehicle_37" vType="human" speedFactor="1.18" vaporized="">
        <emissions CO_abs="0" CO2_abs="0" HC_abs="0" PMx_abs="0" NOx_abs="0" fuel_abs="0" electricity_abs="61.543670"/>
    </tripinfo>
    <tripinfo id="vehicle_45" depart="44.40" departLane="road3_0" departPos="4.10" departPosLat="0.00" departSpeed="1.87" departDelay="24.83" arrival="68.80" arrivalLane="-road1_0" arrivalPos="19.96" arrivalPosLat="0.00" arrivalSpeed="13.14" duration="24.40" routeLength="206.37" waitingTime="0.00" waitingCount="0" stopTime="0.00" timeLoss="8.27" rerouteNo="1" devices="tripinfo_vehicle_45 routing_vehicle_45 emissions_vehicle_45 battery_vehicle_45" vType="human" speedFactor="1.09" vaporized="">
        <emissions CO_abs="0" CO2_abs="0" HC_abs="0" PMx_abs="0" NOx_abs="0" fuel_abs="0" electricity_abs="86.550144"/>
    </tripinfo>
    <tripinfo id="vehicle_78" depart="48.80" departLane="road3_0" departPos="4.10" departPosLat="0.00" departSpeed="3.04" departDelay="27.87" arrival="69.60" arrivalLane="-road2_0" arrivalPos="19.96" arrivalPosLat="0.00" arrivalSpeed="12.28" duration="20.80" routeLength="122.77" waitingTime="0.40" waitingCount="1" stopTime="0.00" timeLoss="10.28" rerouteNo="1" devices="tripinfo_vehicle_78 routing_vehicle_78 emissions_vehicle_78 battery_vehicle_78" vType="human" speedFactor="1.01" vaporized="">