<?xml version="1.0" encoding="UTF-8"?>

<!-- generated on 2024-11-01 21:41:32 by Eclipse SUMO sumo Version v1_20_0+0085-e155ab8699b
<configuration xmlns:xsi="http://www.w3.org/2001/XMLSchema-instance" xsi:noNamespaceSchemaLocation="http://sumo.dlr.de/xsd/sumoConfiguration.xsd">

    <input>
        <net-file value="../networks/roundabout.net.xml"/>
        <route-files value="../networks/routes1.rou.xml"/>
    </input>

    <output>
        <output-prefix value="418-"/>
        <battery-output.precision value="4"/>
        <tripinfo-output value="../networks/output_data/output_default/tripinfo/tripinfo-output.xml"/>
        <collision-output value="../networks/output_data/output_default/collision/collision-output.xml"/>
    </output>

    <time>
        <begin value="0"/>
        <step-length value="0.4"/>
    </time>

    <processing>
        <step-method.ballistic value="true"/>
        <lateral-resolution value="3.2"/>
        <collision.action value="warn"/>
        <collision.check-junctions value="True"/>
        <collision.mingap-factor value="0"/>
        <time-to-teleport value="-1"/>
        <random-depart-offset value="5"/>
    </processing>

    <report>
        <no-warnings value="True"/>
        <no-step-log value="True"/>
    </report>

    <emissions>
        <device.emissions.probability value="1"/>
    </emissions>

    <battery>
        <device.battery.probability value="1"/>
    </battery>

    <traci_server>
        <remote-port value="54045"/>
    </traci_server>

    <gui_only>
        <quit-on-end value="True"/>
        <start value="True"/>
    </gui_only>

</configuration>
-->

<tripinfos xmlns:xsi="http://www.w3.org/2001/XMLSchema-instance" xsi:noNamespaceSchemaLocation="http://sumo.dlr.de/xsd/tripinfo_file.xsd">
    <tripinfo id="vehicle_3" depart="1.20" departLane="road2_0" departPos="4.10" departPosLat="0.00" departSpeed="1.18" departDelay="0.24" arrival="16.40" arrivalLane="-road1_0" arrivalPos="19.96" arrivalPosLat="0.00" arrivalSpeed="13.58" duration="15.20" routeLength="122.77" waitingTime="0.00" waitingCount="0" stopTime="0.00" timeLoss="4.84" rerouteNo="1" devices="tripinfo_vehicle_3 routing_vehicle_3 emissions_vehicle_3 battery_vehicle_3" vType="human" speedFactor="1.08" vaporized="">
        <emissions CO_abs="0" CO2_abs="0" HC_abs="0" PMx_abs="0" NOx_abs="0" fuel_abs="0" electricity_abs="72.346272"/>
    </tripinfo>
    <tripinfo id="vehicle_66" depart="1.60" departLane="road0_0" departPos="4.10" departPosLat="0.00" departSpeed="4.69" departDelay="0.81" arrival="18.40" arrivalLane="-road3_0" arrivalPos="19.96" arrivalPosLat="0.00" arrivalSpeed="10.97" duration="16.80" routeLength="122.77" waitingTime="0.00" waitingCount="0" stopTime="0.00" timeLoss="5.57" rerouteNo="0" devices="tripinfo_vehicle_66 emissions_vehicle_66 battery_vehicle_66" vType="human" speedFactor="0.91" vaporized="">
        <emissions CO_abs="0" CO2_abs="0" HC_abs="0" PMx_abs="0" NOx_abs="0" fuel_abs="0" electricity_abs="48.024722"/>
    </tripinfo>
    <tripinfo id="vehicle_13" depart="2.40" departLane="road3_0" departPos="4.10" departPosLat="0.00" departSpeed="9.75" departDelay="0.25" arrival="22.00" arrivalLane="-road1_0" arrivalPos="19.96" arrivalPosLat="0.00" arrivalSpeed="12.80" duration="19.60" routeLength="206.37" waitingTime="0.00" waitingCount="0" stopTime="0.00" timeLoss="3.78" rerouteNo="1" devices="tripinfo_vehicle_13 routing_vehicle_13 emissions_vehicle_13 battery_vehicle_13" vType="human" speedFactor="1.12" vaporized="">
        <emissions CO_abs="0" CO2_abs="0" HC_abs="0" PMx_abs="0" NOx_abs="0" fuel_abs="0" electricity_abs="67.685557"/>
    </tripinfo>
    <tripinfo id="vehicle_23" depart="0.40" departLane="road0_0" departPos="4.10" departPosLat="0.00" departSpeed="5.68" departDelay="0.17" arrival="23.20" arrivalLane="-road2_0" arrivalPos="19.96" arrivalPosLat="0.00" arrivalSpeed="11.55" duration="22.80" routeLength="206.37" waitingTime="0.00" waitingCount="0" stopTime="0.00" timeLoss="4.72" rerouteNo="0" devices="tripinfo_vehicle_23 emissions_vehicle_23 battery_vehicle_23" vType="human" speedFactor="0.89" vaporized="">
        <emissions CO_abs="0" CO2_abs="0" HC_abs="0" PMx_abs="0" NOx_abs="0" fuel_abs="0" electricity_abs="64.943217"/>
    </tripinfo>
    <tripinfo id="vehicle_79" depart="1.20" departLane="road1_0" departPos="4.10" departPosLat="0.00" departSpeed="5.98" departDelay="0.29" arrival="23.20" arrivalLane="-road3_0" arrivalPos="19.96" arrivalPosLat="0.00" arrivalSpeed="12.63" duration="22.00" routeLength="206.37" waitingTime="0.00" waitingCount="0" stopTime="0.00" timeLoss="5.91" rerouteNo="1" devices="tripinfo_vehicle_79 routing_vehicle_79 emissions_vehicle_79 battery_vehicle_79" vType="human" speedFactor="1.09" vaporized="">
        <emissions CO_abs="0" CO2_abs="0" HC_abs="0" PMx_abs="0" NOx_abs="0" fuel_abs="0" electricity_abs="75.280562"/>
    </tripinfo>
    <tripinfo id="vehicle_12" depart="3.20" departLane="road3_0" departPos="4.10" departPosLat="0.00" departSpeed="5.40" departDelay="0.77" arrival="25.60" arrivalLane="-road1_0" arrivalPos="19.96" arrivalPosLat="0.00" arrivalSpeed="12.84" duration="22.40" routeLength="206.37" waitingTime="0.00" waitingCount="0" stopTime="0.00" timeLoss="5.92" rerouteNo="1" devices="tripinfo_vehicle_12 routing_vehicle_12 emissions_vehicle_12 battery_vehicle_12" vType="human" speedFactor="1.05" vaporized="">
        <emissions CO_abs="0" CO2_abs="0" HC_abs="0" PMx_abs="0" NOx_abs="0" fuel_abs="0" electricity_abs="79.668231"/>
    </tripinfo>
    <tripinfo id="vehicle_72" depart="4.80" departLane="road3_0" departPos="4.10" departPosLat="0.00" departSpeed="1.73" departDelay="1.45" arrival="25.60" arrivalLane="-road2_0" arrivalPos="19.96" arrivalPosLat="0.00" arrivalSpeed="12.75" duration="20.80" routeLength="122.77" waitingTime="0.00" waitingCount="0" stopTime="0.00" timeLoss="9.65" rerouteNo="1" devices="tripinfo_vehicle_72 routing_vehicle_72 emissions_vehicle_72 battery_vehicle_72" vType="human" speedFactor="0.94" vaporized="">
        <emissions CO_abs="0" CO2_abs="0" HC_abs="0" PMx_abs="0" NOx_abs="0" fuel_abs="0" electricity_abs="60.203229"/>
    </tripinfo>
    <tripinfo id="vehicle_50" depart="2.40" departLane="road1_0" departPos="4.10" departPosLat="0.00" departSpeed="5.28" departDelay="0.50" arrival="26.80" arrivalLane="-road3_0" arrivalPos="19.96" arrivalPosLat="0.00" arrivalSpeed="11.19" duration="24.40" routeLength="206.37" waitingTime="0.00" waitingCount="0" stopTime="0.00" timeLoss="5.32" rerouteNo="1" devices="tripinfo_vehicle_50 routing_vehicle_50 emissions_vehicle_50 battery_vehicle_50" vType="human" speedFactor="0.85" vaporized="">
        <emissions CO_abs="0" CO2_abs="0" HC_abs="0" PMx_abs="0" NOx_abs="0" fuel_abs="0" electricity_abs="63.073960"/>
    </tripinfo>
    <tripinfo id="vehicle_69" depart="4.80" departLane="road2_0" departPos="4.10" departPosLat="0.00" departSpeed="2.94" departDelay="0.92" arrival="27.60" arrivalLane="-road0_0" arrivalPos="19.96" arrivalPosLat="0.00" arrivalSpeed="12.75" duration="22.80" routeLength="206.37" waitingTime="0.00" waitingCount="0" stopTime="0.00" timeLoss="6.16" rerouteNo="1" devices="tripinfo_vehicle_69 routing_vehicle_69 emissions_vehicle_69 battery_vehicle_69" vType="human" speedFactor="1.02" vaporized="">
        <emissions CO_abs="0" CO2_abs="0" HC_abs="0" PMx_abs="0" NOx_abs="0" fuel_abs="0" electricity_abs="83.116925"/>
    </tripinfo>
    <tripinfo id="vehicle_78" depart="2.80" departLane="road0_0" departPos="4.10" departPosLat="0.00" departSpeed="2.67" departDelay="0.64" arrival="30.40" arrivalLane="-road2_0" arrivalPos="19.96" arrivalPosLat="0.00" arrivalSpeed="11.90" duration="27.60" routeLength="206.37" waitingTime="0.00" waitingCount="0" stopTime="0.00" timeLoss="11.16" rerouteNo="0" devices="tripinfo_vehicle_78 emissions_vehicle_78 battery_vehicle_78" vType="human" speedFactor="1.01" vaporized="">
        <emissions CO_abs="0" CO2_abs="0" HC_abs="0" PMx_abs="0" NOx_abs="0" fuel_abs="0" electricity_abs="71.246687"/>
    </tripinfo>
    <tripinfo id="vehicle_43" depart="8.40" departLane="road1_0" departPos="4.10" departPosLat="0.00" departSpeed="3.09" departDelay="6.07" arrival="31.20" arrivalLane="-road3_0" arrivalPos="19.96" arrivalPosLat="0.00" arrivalSpeed="12.46" duration="22.80" routeLength="206.37" waitingTime="0.00" waitingCount="0" stopTime="0.00" timeLoss="6.63" rerouteNo="1" devices="tripinfo_vehicle_43 routing_vehicle_43 emissions_vehicle_43 battery_vehicle_43" vType="human" speedFactor="1.04" vaporized="">
        <emissions CO_abs="0" CO2_abs="0" HC_abs="0" PMx_abs="0" NOx_abs="0" fuel_abs="0" electricity_abs="84.434145"/>
    </tripinfo>
    <tripinfo id="vehicle_25" depart="9.20" departLane="road3_0" departPos="4.10" departPosLat="0.00" departSpeed="1.24" departDelay="2.90" arrival="33.20" arrivalLane="-road2_0" arrivalPos="19.96" arrivalPosLat="0.00" arrivalSpeed="11.23" duration="24.00" routeLength="122.77" waitingTime="3.20" waitingCount="1" stopTime="0.00" timeLoss="12.05" rerouteNo="1" devices="tripinfo_vehicle_25 routing_vehicle_25 emissions_vehicle_25 battery_vehicle_25" vType="human" speedFactor="0.87" vaporized="">
        <emissions CO_abs="0" CO2_abs="0" HC_abs="0" PMx_abs="0" NOx_abs="0" fuel_abs="0" electricity_abs="53.547757"/>
    </tripinfo>
    <tripinfo id="vehicle_33" depart="2.80" departLane="road2_0" departPos="4.10" departPosLat="0.00" departSpeed="0.16" departDelay="0.75" arrival="33.20" arrivalLane="-road3_0" arrivalPos="19.96" arrivalPosLat="0.00" arrivalSpeed="13.25" duration="30.40" routeLength="289.97" waitingTime="0.00" waitingCount="0" stopTime="0.00" timeLoss="8.08" rerouteNo="1" devices="tripinfo_vehicle_33 routing_vehicle_33 emissions_vehicle_33 battery_vehicle_33" vType="human" speedFactor="1.17" vaporized="">
        <emissions CO_abs="0" CO2_abs="0" HC_abs="0" PMx_abs="0" NOx_abs="0" fuel_abs="0" electricity_abs="108.176210"/>
    </tripinfo>
    <tripinfo id="vehicle_7" depart="16.00" departLane="road2_0" departPos="4.10" departPosLat="0.00" departSpeed="1.05" departDelay="8.51" arrival="33.60" arrivalLane="-road1_0" arrivalPos="19.96" arrivalPosLat="0.00" arrivalSpeed="11.54" duration="17.60" routeLength="122.77" waitingTime="0.00" waitingCount="0" stopTime="0.00" timeLoss="5.70" rerouteNo="1" devices="tripinfo_vehicle_7 routing_vehicle_7 emissions_vehicle_7 battery_vehicle_7" vType="human" speedFactor="0.89" vaporized="">
        <emissions CO_abs="0" CO2_abs="0" HC_abs="0" PMx_abs="0" NOx_abs="0" fuel_abs="0" electricity_abs="56.077570"/>
    </tripinfo>
    <tripinfo id="vehicle_54" depart="4.00" departLane="road1_0" departPos="4.10" departPosLat="0.00" departSpeed="2.64" departDelay="2.13" arrival="35.20" arrivalLane="-road2_0" arrivalPos="19.96" arrivalPosLat="0.00" arrivalSpeed="13.44" duration="31.20" routeLength="289.97" waitingTime="0.00" waitingCount="0" stopTime="0.00" timeLoss="8.61" rerouteNo="1" devices="tripinfo_vehicle_54 routing_vehicle_54 emissions_vehicle_54 battery_vehicle_54" vType="human" speedFactor="1.00" vaporized="">
        <emissions CO_abs="0" CO2_abs="0" HC_abs="0" PMx_abs="0" NOx_abs="0" fuel_abs="0" electricity_abs="109.277201"/>
    </tripinfo>
    <tripinfo id="vehicle_73" depart="6.80" departLane="road2_0" departPos="4.10" departPosLat="0.00" departSpeed="3.29" departDelay="2.03" arrival="35.20" arrivalLane="-road0_0" arrivalPos="19.96" arrivalPosLat="0.00" arrivalSpeed="12.35" duration="28.40" routeLength="206.37" waitingTime="0.80" waitingCount="1" stopTime="0.00" timeLoss="11.94" rerouteNo="1" devices="tripinfo_vehicle_73 routing_vehicle_73 emissions_vehicle_73 battery_vehicle_73" vType="human" speedFactor="1.06" vaporized="">
        <emissions CO_abs="0" CO2_abs="0" HC_abs="0" PMx_abs="0" NOx_abs="0" fuel_abs="0" electricity_abs="76.591588"/>
    </tripinfo>
    <tripinfo id="vehicle_11" depart="7.20" departLane="road3_0" departPos="4.10" departPosLat="0.00" departSpeed="3.89" departDelay="2.21" arrival="36.40" arrivalLane="-road1_0" arrivalPos="19.96" arrivalPosLat="0.00" arrivalSpeed="11.93" duration="29.20" routeLength="206.37" waitingTime="0.00" waitingCount="0" stopTime="0.00" timeLoss="12.66" rerouteNo="1" devices="tripinfo_vehicle_11 routing_vehicle_11 emissions_vehicle_11 battery_vehicle_11" vType="human" speedFactor="1.03" vaporized="">
        <emissions CO_abs="0" CO2_abs="0" HC_abs="0" PMx_abs="0" NOx_abs="0" fuel_abs="0" electricity_abs="68.255723"/>
    </tripinfo>
    <tripinfo id="vehicle_41" depart="7.60" departLane="road0_0" departPos="4.10" departPosLat="0.00" departSpeed="1.80" departDelay="3.81" arrival="40.40" arrivalLane="-road3_0" arrivalPos="19.96" arrivalPosLat="0.00" arrivalSpeed="12.83" duration="32.80" routeLength="122.77" waitingTime="11.60" waitingCount="1" stopTime="0.00" timeLoss="21.92" rerouteNo="0" devices="tripinfo_vehicle_41 emissions_vehicle_41 battery_vehicle_41" vType="human" speedFactor="0.96" vaporized="">
        <emissions CO_abs="0" CO2_abs="0" HC_abs="0" PMx_abs="0" NOx_abs="0" fuel_abs="0" electricity_abs="65.083956"/>
    </tripinfo>
    <tripinfo id="vehicle_18" depart="6.40" departLane="road1_0" departPos="4.10" departPosLat="0.00" departSpeed="3.41" departDelay="4.31" arrival="41.20" arrivalLane="-road2_0" arrivalPos="19.96" arrivalPosLat="0.00" arrivalSpeed="11.70" duration="34.80" routeLength="289.97" waitingTime="0.00" waitingCount="0" stopTime="0.00" timeLoss="11.03" rerouteNo="1" devices="tripinfo_vehicle_18 routing_vehicle_18 emissions_vehicle_18 battery_vehicle_18" vType="human" speedFactor="0.94" vaporized="">
        <emissions CO_abs="0" CO2_abs="0" HC_abs="0" PMx_abs="0" NOx_abs="0" fuel_abs="0" electricity_abs="89.201201"/>
    </tripinfo>
    <tripinfo id="vehicle_19" depart="21.60" departLane="road3_0" departPos="4.10" departPosLat="0.00" departSpeed="1.64" departDelay="8.38" arrival="43.20" arrivalLane="-road2_0" arrivalPos="19.96" arrivalPosLat="0.00" arrivalSpeed="11.84" duration="21.60" routeLength="122.77" waitingTime="0.00" waitingCount="0" stopTime="0.00" timeLoss="11.55" rerouteNo="1" devices="tripinfo_vehicle_19 routing_vehicle_19 emissions_vehicle_19 battery_vehicle_19" vType="human" speedFactor="1.16" vaporized="">
        <emissions CO_abs="0" CO2_abs="0" HC_abs="0" PMx_abs="0" NOx_abs="0" fuel_abs="0" electricity_abs="54.867627"/>
    </tripinfo>
    <tripinfo id="vehicle_58" depart="11.20" departLane="road2_0" departPos="4.10" departPosLat="0.00" departSpeed="1.20" departDelay="4.05" arrival="44.00" arrivalLane="-road3_0" arrivalPos="19.96" arrivalPosLat="0.00" arrivalSpeed="12.83" duration="32.80" routeLength="289.97" waitingTime="0.00" waitingCount="0" stopTime="0.00" timeLoss="10.34" rerouteNo="1" devices="tripinfo_vehicle_58 routing_vehicle_58 emissions_vehicle_58 battery_vehicle_58" vType="human" speedFactor="1.02" vaporized="">
        <emissions CO_abs="0" CO2_abs="0" HC_abs="0" PMx_abs="0" NOx_abs="0" fuel_abs="0" electricity_abs="104.964750"/>
    </tripinfo>
    <tripinfo id="vehicle_32" depart="8.80" departLane="road2_0" departPos="4.10" departPosLat="0.00" departSpeed="2.55" departDelay="3.89" arrival="46.00" arrivalLane="-road3_0" arrivalPos="19.96" arrivalPosLat="0.00" arrivalSpeed="12.10" duration="37.20" routeLength="289.97" waitingTime="0.00" waitingCount="0" stopTime="0.00" timeLoss="14.71" rerouteNo="1" devices="tripinfo_vehicle_32 routing_vehicle_32 emissions_vehicle_32 battery_vehicle_32" vType="human" speedFactor="1.01" vaporized="">
        <emissions CO_abs="0" CO2_abs="0" HC_abs="0" PMx_abs="0" NOx_abs="0" fuel_abs="0" electricity_abs="91.269644"/>
    </tripinfo>
    <tripinfo id="vehicle_22" depart="4.80" departLane="road0_0" departPos="4.10" departPosLat="0.00" departSpeed="1.60" departDelay="1.00" arrival="46.40" arrivalLane="-road2_0" arrivalPos="19.96" arrivalPosLat="0.00" arrivalSpeed="12.02" duration="41.60" routeLength="206.37" waitingTime="12.80" waitingCount="1" stopTime="0.00" timeLoss="24.75" rerouteNo="0" devices="tripinfo_vehicle_22 emissions_vehicle_22 battery_vehicle_22" vType="human" speedFactor="0.97" vaporized="">
        <emissions CO_abs="0" CO2_abs="0" HC_abs="0" PMx_abs="0" NOx_abs="0" fuel_abs="0" electricity_abs="75.657537"/>
    </tripinfo>
    <tripinfo id="vehicle_67" depart="15.20" departLane="road3_0" departPos="4.10" departPosLat="0.00" departSpeed="1.07" departDelay="7.46" arrival="46.40" arrivalLane="-road1_0" arrivalPos="19.96" arrivalPosLat="0.00" arrivalSpeed="11.24" duration="31.20" routeLength="206.37" waitingTime="0.80" waitingCount="1" stopTime="0.00" timeLoss="13.12" rerouteNo="1" devices="tripinfo_vehicle_67 routing_vehicle_67 emissions_vehicle_67 battery_vehicle_67" vType="human" speedFactor="0.91" vaporized="">
        <emissions CO_abs="0" CO2_abs="0" HC_abs="0" PMx_abs="0" NOx_abs="0" fuel_abs="0" electricity_abs="68.206252"/>
    </tripinfo>
    <tripinfo id="vehicle_71" depart="16.00" departLane="road1_0" departPos="4.10" departPosLat="0.00" departSpeed="0.82" departDelay="7.14" arrival="47.20" arrivalLane="-road0_0" arrivalPos="19.96" arrivalPosLat="0.00" arrivalSpeed="11.71" duration="31.20" routeLength="122.77" waitingTime="9.60" waitingCount="1" stopTime="0.00" timeLoss="20.37" rerouteNo="1" devices="tripinfo_vehicle_71 routing_vehicle_71 emissions_vehicle_71 battery_vehicle_71" vType="human" speedFactor="0.97" vaporized="">
        <emissions CO_abs="0" CO2_abs="0" HC_abs="0" PMx_abs="0" NOx_abs="0" fuel_abs="0" electricity_abs="58.401907"/>
    </tripinfo>
    <tripinfo id="vehicle_38" depart="31.60" departLane="road1_0" departPos="4.10" departPosLat="0.00" departSpeed="1.02" departDelay="21.66" arrival="48.80" arrivalLane="-road0_0" arrivalPos="19.96" arrivalPosLat="0.00" arrivalSpeed="12.33" duration="17.20" routeLength="122.77" waitingTime="0.00" waitingCount="0" stopTime="0.00" timeLoss="7.12" rerouteNo="1" devices="tripinfo_vehicle_38 routing_vehicle_38 emissions_vehicle_38 battery_vehicle_38" vType="human" speedFactor="1.10" vaporized="">
        <emissions CO_abs="0" CO2_abs="0" HC_abs="0" PMx_abs="0" NOx_abs="0" fuel_abs="0" electricity_abs="65.222170"/>
    </tripinfo>
    <tripinfo id="vehicle_51" depart="18.80" departLane="road2_0" departPos="4.10" departPosLat="0.00" departSpeed="3.96" departDelay="11.21" arrival="48.80" arrivalLane="-road1_0" arrivalPos="19.96" arrivalPosLat="0.00" arrivalSpeed="12.04" duration="30.00" routeLength="122.77" waitingTime="12.40" waitingCount="1" stopTime="0.00" timeLoss="20.06" rerouteNo="1" devices="tripinfo_vehicle_51 routing_vehicle_51 emissions_vehicle_51 battery_vehicle_51" vType="human" speedFactor="1.17" vaporized="">
        <emissions CO_abs="0" CO2_abs="0" HC_abs="0" PMx_abs="0" NOx_abs="0" fuel_abs="0" electricity_abs="59.676546"/>
    </tripinfo>
    <tripinfo id="vehicle_55" depart="10.40" departLane="road1_0" departPos="4.10" departPosLat="0.00" departSpeed="1.70" departDelay="7.68" arrival="49.60" arrivalLane="-road3_0" arrivalPos="19.96" arrivalPosLat="0.00" arrivalSpeed="11.46" duration="39.20" routeLength="206.37" waitingTime="12.00" waitingCount="1" stopTime="0.00" timeLoss="22.62" rerouteNo="1" devices="tripinfo_vehicle_55 routing_vehicle_55 emissions_vehicle_55 battery_vehicle_55" vType="human" speedFactor="1.00" vaporized="">
        <emissions CO_abs="0" CO2_abs="0" HC_abs="0" PMx_abs="0" NOx_abs="0" fuel_abs="0" electricity_abs="76.734931"/>
    </tripinfo>
    <tripinfo id="vehicle_68" depart="34.40" departLane="road1_0" departPos="4.10" departPosLat="0.00" departSpeed="2.73" departDelay="22.83" arrival="51.60" arrivalLane="-road0_0" arrivalPos="19.96" arrivalPosLat="0.00" arrivalSpeed="11.77" duration="17.20" routeLength="122.77" waitingTime="0.00" waitingCount="0" stopTime="0.00" timeLoss="6.68" rerouteNo="1" devices="tripinfo_vehicle_68 routing_vehicle_68 emissions_vehicle_68 battery_vehicle_68" vType="human" speedFactor="1.04" vaporized="">
        <emissions CO_abs="0" CO2_abs="0" HC_abs="0" PMx_abs="0" NOx_abs="0" fuel_abs="0" electricity_abs="57.097007"/>
    </tripinfo>
    <tripinfo id="vehicle_61" depart="26.80" departLane="road0_0" departPos="4.10" departPosLat="0.00" departSpeed="0.76" departDelay="17.51" arrival="52.00" arrivalLane="-road3_0" arrivalPos="19.96" arrivalPosLat="0.00" arrivalSpeed="12.76" duration="25.20" routeLength="122.77" waitingTime="6.00" waitingCount="1" stopTime="0.00" timeLoss="14.91" rerouteNo="0" devices="tripinfo_vehicle_61 emissions_vehicle_61 battery_vehicle_61" vType="human" speedFactor="1.12" vaporized="">
        <emissions CO_abs="0" CO2_abs="0" HC_abs="0" PMx_abs="0" NOx_abs="0" fuel_abs="0" electricity_abs="66.798312"/>
    </tripinfo>
    <tripinfo id="vehicle_46" depart="22.40" departLane="road2_0" departPos="4.10" departPosLat="0.00" departSpeed="0.20" departDelay="14.15" arrival="54.00" arrivalLane="-road1_0" arrivalPos="19.96" arrivalPosLat="0.00" arrivalSpeed="11.36" duration="31.60" routeLength="122.77" waitingTime="10.00" waitingCount="1" stopTime="0.00" timeLoss="20.97" rerouteNo="1" devices="tripinfo_vehicle_46 routing_vehicle_46 emissions_vehicle_46 battery_vehicle_46" vType="human" speedFactor="1.00" vaporized="">
        <emissions CO_abs="0" CO2_abs="0" HC_abs="0" PMx_abs="0" NOx_abs="0" fuel_abs="0" electricity_abs="54.850427"/>
    </tripinfo>
    <tripinfo id="vehicle_10" depart="29.60" departLane="road0_0" departPos="4.10" departPosLat="0.00" departSpeed="2.01" departDelay="19.51" arrival="54.40" arrivalLane="-road3_0" arrivalPos="19.96" arrivalPosLat="0.00" arrivalSpeed="13.05" duration="24.80" routeLength="122.77" waitingTime="4.40" waitingCount="1" stopTime="0.00" timeLoss="14.61" rerouteNo="0" devices="tripinfo_vehicle_10 emissions_vehicle_10 battery_vehicle_10" vType="human" speedFactor="1.09" vaporized="">
        <emissions CO_abs="0" CO2_abs="0" HC_abs="0" PMx_abs="0" NOx_abs="0" fuel_abs="0" electricity_abs="66.540764"/>
    </tripinfo>
    <tripinfo id="vehicle_77" depart="12.80" departLane="road3_0" departPos="4.10" departPosLat="0.00" departSpeed="2.96" departDelay="5.97" arrival="54.40" arrivalLane="-road0_0" arrivalPos="19.96" arrivalPosLat="0.00" arrivalSpeed="13.61" duration="41.60" routeLength="289.97" waitingTime="2.40" waitingCount="2" stopTime="0.00" timeLoss="18.84" rerouteNo="1" devices="tripinfo_vehicle_77 routing_vehicle_77 emissions_vehicle_77 battery_vehicle_77" vType="human" speedFactor="0.98" vaporized="">
        <emissions CO_abs="0" CO2_abs="0" HC_abs="0" PMx_abs="0" NOx_abs="0" fuel_abs="0" electricity_abs="103.305552"/>
    </tripinfo>
    <tripinfo id="vehicle_17" depart="32.80" departLane="road3_0" departPos="4.10" departPosLat="0.00" departSpeed="1.03" departDelay="16.54" arrival="55.60" arrivalLane="-road2_0" arrivalPos="19.96" arrivalPosLat="0.00" arrivalSpeed="11.48" duration="22.80" routeLength="122.77" waitingTime="1.60" waitingCount="1" stopTime="0.00" timeLoss="12.08" rerouteNo="1" devices="tripinfo_vehicle_17 routing_vehicle_17 emissions_vehicle_17 battery_vehicle_17" vType="human" speedFactor="0.94" vaporized="">
        <emissions CO_abs="0" CO2_abs="0" HC_abs="0" PMx_abs="0" NOx_abs="0" fuel_abs="0" electricity_abs="56.719981"/>
    </tripinfo>
    <tripinfo id="vehicle_0" depart="10.00" departLane="road0_0" departPos="4.10" departPosLat="0.00" departSpeed="1.65" departDelay="2.99" arrival="56.00" arrivalLane="-road1_0" arrivalPos="19.96" arrivalPosLat="0.00" arrivalSpeed="12.06" duration="46.00" routeLength="289.97" waitingTime="10.40" waitingCount="1" stopTime="0.00" timeLoss="23.56" rerouteNo="0" devices="tripinfo_vehicle_0 emissions_vehicle_0 battery_vehicle_0" vType="human" speedFactor="1.06" vaporized="">
        <emissions CO_abs="0" CO2_abs="0" HC_abs="0" PMx_abs="0" NOx_abs="0" fuel_abs="0" electricity_abs="98.733646"/>
    </tripinfo>
    <tripinfo id="vehicle_35" depart="32.40" departLane="road0_0" departPos="4.10" departPosLat="0.00" departSpeed="1.47" departDelay="21.07" arrival="56.80" arrivalLane="-road3_0" arrivalPos="19.96" arrivalPosLat="0.00" arrivalSpeed="11.96" duration="24.40" routeLength="122.77" waitingTime="3.20" waitingCount="1" stopTime="0.00" timeLoss="14.07" rerouteNo="0" devices="tripinfo_vehicle_35 emissions_vehicle_35 battery_vehicle_35" vType="human" speedFactor="1.02" vaporized="">
        <emissions CO_abs="0" CO2_abs="0" HC_abs="0" PMx_abs="0" NOx_abs="0" fuel_abs="0" electricity_abs="58.794053"/>
    </tripinfo>
    <tripinfo id="vehicle_56" depart="41.60" departLane="road0_0" departPos="4.10" departPosLat="0.00" departSpeed="1.25" departDelay="25.24" arrival="60.80" arrivalLane="-road3_0" arrivalPos="19.96" arrivalPosLat="0.00" arrivalSpeed="11.57" duration="19.20" routeLength="122.77" waitingTime="0.00" waitingCount="0" stopTime="0.00" timeLoss="7.45" rerouteNo="0" devices="tripinfo_vehicle_56 emissions_vehicle_56 battery_vehicle_56" vType="human" speedFactor="0.90" vaporized="">
        <emissions CO_abs="0" CO2_abs="0" HC_abs="0" PMx_abs="0" NOx_abs="0" fuel_abs="0" electricity_abs="52.709105"/>
    </tripinfo>
    <tripinfo id="vehicle_42" depart="30.40" departLane="road3_0" departPos="4.10" departPosLat="0.00" departSpeed="2.59" departDelay="14.65" arrival="61.20" arrivalLane="-road1_0" arrivalPos="19.96" arrivalPosLat="0.00" arrivalSpeed="13.33" duration="30.80" routeLength="206.37" waitingTime="2.40" waitingCount="1" stopTime="0.00" timeLoss="14.39" rerouteNo="1" devices="tripinfo_vehicle_42 routing_vehicle_42 emissions_vehicle_42 battery_vehicle_42" vType="human" speedFactor="1.09" vaporized="">
        <emissions CO_abs="0" CO2_abs="0" HC_abs="0" PMx_abs="0" NOx_abs="0" fuel_abs="0" electricity_abs="86.121804"/>
    </tripinfo>
    <tripinfo id="vehicle_16" depart="24.00" departLane="road3_0" departPos="4.10" departPosLat="0.00" departSpeed="0.65" departDelay="9.90" arrival="61.60" arrivalLane="-road0_0" arrivalPos="19.96" arrivalPosLat="0.00" arrivalSpeed="11.65" duration="37.60" routeLength="289.97" waitingTime="0.00" waitingCount="0" stopTime="0.00" timeLoss="12.15" rerouteNo="1" devices="tripinfo_vehicle_16 routing_vehicle_16 emissions_vehicle_16 battery_vehicle_16" vType="human" speedFactor="0.88" vaporized="">
        <emissions CO_abs="0" CO2_abs="0" HC_abs="0" PMx_abs="0" NOx_abs="0" fuel_abs="0" electricity_abs="85.524911"/>
    </tripinfo>
    <tripinfo id="vehicle_48" depart="13.20" departLane="road1_0" departPos="4.10" departPosLat="0.00" departSpeed="2.07" departDelay="4.49" arrival="62.80" arrivalLane="-road2_0" arrivalPos="19.96" arrivalPosLat="0.00" arrivalSpeed="10.92" duration="49.60" routeLength="289.97" waitingTime="10.40" waitingCount="1" stopTime="0.00" timeLoss="24.31" rerouteNo="1" devices="tripinfo_vehicle_48 routing_vehicle_48 emissions_vehicle_48 battery_vehicle_48" vType="human" speedFactor="0.88" vaporized="">
        <emissions CO_abs="0" CO2_abs="0" HC_abs="0" PMx_abs="0" NOx_abs="0" fuel_abs="0" electricity_abs="81.301269"/>
    </tripinfo>
    <tripinfo id="vehicle_62" depart="45.60" departLane="road3_0" departPos="4.10" departPosLat="0.00" departSpeed="3.10" departDelay="26.10" arrival="64.40" arrivalLane="-road2_0" arrivalPos="19.96" arrivalPosLat="0.00" arrivalSpeed="12.00" duration="18.80" routeLength="122.77" waitingTime="0.00" waitingCount="0" stopTime="0.00" timeLoss="8.65" rerouteNo="1" devices="tripinfo_vehicle_62 routing_vehicle_62 emissions_vehicle_62 battery_vehicle_62" vType="human" speedFactor="1.02" vaporized="">
        <emissions CO_abs="0" CO2_abs="0" HC_abs="0" PMx_abs="0" NOx_abs="0" fuel_abs="0" electricity_abs="54.643100"/>
    </tripinfo>
    <tripinfo id="vehicle_36" depart="36.80" departLane="road1_0" departPos="4.10" departPosLat="0.00" departSpeed="0.98" departDelay="23.74" arrival="64.80" arrivalLane="-road3_0" arrivalPos="19.96" arrivalPosLat="0.00" arrivalSpeed="10.68" duration="28.00" routeLength="206.37" waitingTime="0.80" waitingCount="1" stopTime="0.00" timeLoss="11.58" rerouteNo="1" devices="tripinfo_vehicle_36 routing_vehicle_36 emissions_vehicle_36 battery_vehicle_36" vType="human" speedFactor="0.97" vaporized="">
        <emissions CO_abs="0" CO2_abs="0" HC_abs="0" PMx_abs="0" NOx_abs="0" fuel_abs="0" electricity_abs="66.309751"/>
    </tripinfo>
    <tripinfo id="vehicle_63" depart="26.00" departLane="road3_0" departPos="4.10" departPosLat="0.00" departSpeed="2.40" departDelay="11.61" arrival="65.60" arrivalLane="-road0_0" arrivalPos="19.96" arrivalPosLat="0.00" arrivalSpeed="11.94" duration="39.60" routeLength="289.97" waitingTime="0.00" waitingCount="0" stopTime="0.00" timeLoss="17.09" rerouteNo="1" devices="tripinfo_vehicle_63 routing_vehicle_63 emissions_vehicle_63 battery_vehicle_63" vType="human" speedFactor="0.99" vaporized="">
        <emissions CO_abs="0" CO2_abs="0" HC_abs="0" PMx_abs="0" NOx_abs="0" fuel_abs="0" electricity_abs="85.044187"/>
    </tripinfo>
    <tripinfo id="vehicle_5" depart="39.20" departLane="road1_0" departPos="4.10" departPosLat="0.00" departSpeed="3.41" departDelay="21.11" arrival="68.00" arrivalLane="-road3_0" arrivalPos="19.96" arrivalPosLat="0.00" arrivalSpeed="10.43" duration="28.80" routeLength="206.37" waitingTime="0.00" waitingCount="0" stopTime="0.00" timeLoss="9.22" rerouteNo="1" devices="tripinfo_vehicle_5 routing_vehicle_5 emissions_vehicle_5 battery_vehicle_5" vType="human" speedFactor="0.83" vaporized="">
        <emissions CO_abs="0" CO2_abs="0" HC_abs="0" PMx_abs="0" NOx_abs="0" fuel_abs="0" electricity_abs="59.593537"/>
    </tripinfo>
    <tripinfo id="vehicle_6" depart="28.40" departLane="road3_0" departPos="4.10" departPosLat="0.00" departSpeed="1.78" departDelay="13.72" arrival="68.00" arrivalLane="-road0_0" arrivalPos="19.96" arrivalPosLat="0.00" arrivalSpeed="12.33" duration="39.60" routeLength="289.97" waitingTime="4.80" waitingCount="1" stopTime="0.00" timeLoss="17.30" rerouteNo="1" devices="tripinfo_vehicle_6 routing_vehicle_6 emissions_vehicle_6 battery_vehicle_6" vType="human" speedFactor="1.05" vaporized="">