<?xml version="1.0" encoding="UTF-8"?>

<!-- generated on 2025-08-10 10:42:01 by Eclipse SUMO sumo Version v1_20_0+0085-e155ab8699b
<configuration xmlns:xsi="http://www.w3.org/2001/XMLSchema-instance" xsi:noNamespaceSchemaLocation="http://sumo.dlr.de/xsd/sumoConfiguration.xsd">

    <input>
        <net-file value="../networks/roundabout.net.xml"/>
        <route-files value="../networks/routes1.rou.xml"/>
    </input>

    <output>
        <output-prefix value="46-"/>
        <battery-output.precision value="4"/>
        <tripinfo-output value="../networks/output_data/output_default/tripinfo/tripinfo-output.xml"/>
        <collision-output value="../networks/output_data/output_default/collision/collision-output.xml"/>
    </output>

    <time>
        <begin value="0"/>
        <step-length value="0.4"/>
    </time>

    <processing>
        <step-method.ballistic value="true"/>
        <lateral-resolution value="3.2"/>
        <collision.action value="warn"/>
        <collision.check-junctions value="True"/>
        <collision.mingap-factor value="0"/>
        <time-to-teleport value="-1"/>
        <random-depart-offset value="5"/>
    </processing>

    <report>
        <no-warnings value="True"/>
        <no-step-log value="True"/>
    </report>

    <emissions>
        <device.emissions.probability value="1"/>
    </emissions>

    <battery>
        <device.battery.probability value="1"/>
    </battery>

    <traci_server>
        <remote-port value="57681"/>
    </traci_server>

    <gui_only>
        <quit-on-end value="True"/>
        <start value="True"/>
        <delay value="0"/>
    </gui_only>

</configuration>
-->

<tripinfos xmlns:xsi="http://www.w3.org/2001/XMLSchema-instance" xsi:noNamespaceSchemaLocation="http://sumo.dlr.de/xsd/tripinfo_file.xsd">
    <tripinfo id="vehicle_77" depart="4.40" departLane="road1_0" departPos="4.10" departPosLat="0.00" departSpeed="6.19" departDelay="0.00" arrival="20.00" arrivalLane="-road0_0" arrivalPos="19.96" arrivalPosLat="0.00" arrivalSpeed="12.55" duration="15.60" routeLength="122.77" waitingTime="0.00" waitingCount="0" stopTime="0.00" timeLoss="5.29" rerouteNo="1" devices="tripinfo_vehicle_77 routing_vehicle_77 emissions_vehicle_77 battery_vehicle_77" vType="human" speedFactor="0.98" vaporized="">
        <emissions CO_abs="0" CO2_abs="0" HC_abs="0" PMx_abs="0" NOx_abs="0" fuel_abs="0" electricity_abs="53.948060"/>
    </tripinfo>
    <tripinfo id="vehicle_0" depart="6.00" departLane="road2_0" departPos="4.10" departPosLat="0.00" departSpeed="5.02" departDelay="0.00" arrival="21.20" arrivalLane="-road1_0" arrivalPos="19.96" arrivalPosLat="0.00" arrivalSpeed="13.45" duration="15.20" routeLength="122.77" waitingTime="0.00" waitingCount="0" stopTime="0.00" timeLoss="4.97" rerouteNo="1" devices="tripinfo_vehicle_0 routing_vehicle_0 emissions_vehicle_0 battery_vehicle_0" vType="human" speedFactor="1.06" vaporized="">
        <emissions CO_abs="0" CO2_abs="0" HC_abs="0" PMx_abs="0" NOx_abs="0" fuel_abs="0" electricity_abs="66.318239"/>
    </tripinfo>
    <tripinfo id="vehicle_21" depart="0.40" departLane="road1_0" departPos="4.10" departPosLat="0.00" departSpeed="6.33" departDelay="0.00" arrival="21.20" arrivalLane="-road3_0" arrivalPos="19.96" arrivalPosLat="0.00" arrivalSpeed="11.09" duration="20.80" routeLength="206.37" waitingTime="0.00" waitingCount="0" stopTime="0.00" timeLoss="4.74" rerouteNo="1" devices="tripinfo_vehicle_21 routing_vehicle_21 emissions_vehicle_21 battery_vehicle_21" vType="human" speedFactor="1.01" vaporized="">
        <emissions CO_abs="0" CO2_abs="0" HC_abs="0" PMx_abs="0" NOx_abs="0" fuel_abs="0" electricity_abs="66.826793"/>
    </tripinfo>
    <tripinfo id="vehicle_56" depart="5.60" departLane="road1_0" departPos="4.10" departPosLat="0.00" departSpeed="3.30" departDelay="0.80" arrival="23.20" arrivalLane="-road0_0" arrivalPos="19.96" arrivalPosLat="0.00" arrivalSpeed="12.22" duration="17.60" routeLength="122.77" waitingTime="0.00" waitingCount="0" stopTime="0.00" timeLoss="6.20" rerouteNo="1" devices="tripinfo_vehicle_56 routing_vehicle_56 emissions_vehicle_56 battery_vehicle_56" vType="human" speedFactor="0.90" vaporized="">
        <emissions CO_abs="0" CO2_abs="0" HC_abs="0" PMx_abs="0" NOx_abs="0" fuel_abs="0" electricity_abs="56.156570"/>
    </tripinfo>
    <tripinfo id="vehicle_54" depart="1.20" departLane="road3_0" departPos="4.10" departPosLat="0.00" departSpeed="0.10" departDelay="0.00" arrival="24.00" arrivalLane="-road1_0" arrivalPos="19.96" arrivalPosLat="0.00" arrivalSpeed="12.13" duration="22.80" routeLength="206.37" waitingTime="0.00" waitingCount="0" stopTime="0.00" timeLoss="6.02" rerouteNo="1" devices="tripinfo_vehicle_54 routing_vehicle_54 emissions_vehicle_54 battery_vehicle_54" vType="human" speedFactor="1.00" vaporized="">
        <emissions CO_abs="0" CO2_abs="0" HC_abs="0" PMx_abs="0" NOx_abs="0" fuel_abs="0" electricity_abs="81.934555"/>
    </tripinfo>
    <tripinfo id="vehicle_61" depart="7.60" departLane="road1_0" departPos="4.10" departPosLat="0.00" departSpeed="2.81" departDelay="0.00" arrival="25.60" arrivalLane="-road0_0" arrivalPos="19.96" arrivalPosLat="0.00" arrivalSpeed="11.42" duration="18.00" routeLength="122.77" waitingTime="0.00" waitingCount="0" stopTime="0.00" timeLoss="7.74" rerouteNo="1" devices="tripinfo_vehicle_61 routing_vehicle_61 emissions_vehicle_61 battery_vehicle_61" vType="human" speedFactor="1.12" vaporized="">
        <emissions CO_abs="0" CO2_abs="0" HC_abs="0" PMx_abs="0" NOx_abs="0" fuel_abs="0" electricity_abs="53.072421"/>
    </tripinfo>
    <tripinfo id="vehicle_67" depart="1.60" departLane="road1_0" departPos="4.10" departPosLat="0.00" departSpeed="5.28" departDelay="0.00" arrival="25.60" arrivalLane="-road3_0" arrivalPos="19.96" arrivalPosLat="0.00" arrivalSpeed="12.58" duration="24.00" routeLength="206.37" waitingTime="0.00" waitingCount="0" stopTime="0.00" timeLoss="5.95" rerouteNo="1" devices="tripinfo_vehicle_67 routing_vehicle_67 emissions_vehicle_67 battery_vehicle_67" vType="human" speedFactor="0.91" vaporized="">
        <emissions CO_abs="0" CO2_abs="0" HC_abs="0" PMx_abs="0" NOx_abs="0" fuel_abs="0" electricity_abs="73.718848"/>
    </tripinfo>
    <tripinfo id="vehicle_64" depart="3.20" departLane="road3_0" departPos="4.10" departPosLat="0.00" departSpeed="3.55" departDelay="2.00" arrival="26.80" arrivalLane="-road1_0" arrivalPos="19.96" arrivalPosLat="0.00" arrivalSpeed="11.15" duration="23.60" routeLength="206.37" waitingTime="0.00" waitingCount="0" stopTime="0.00" timeLoss="6.33" rerouteNo="1" devices="tripinfo_vehicle_64 routing_vehicle_64 emissions_vehicle_64 battery_vehicle_64" vType="human" speedFactor="0.94" vaporized="">
        <emissions CO_abs="0" CO2_abs="0" HC_abs="0" PMx_abs="0" NOx_abs="0" fuel_abs="0" electricity_abs="70.536789"/>
    </tripinfo>
    <tripinfo id="vehicle_58" depart="1.60" departLane="road0_0" departPos="4.10" departPosLat="0.00" departSpeed="9.75" departDelay="0.00" arrival="29.20" arrivalLane="-road1_0" arrivalPos="19.96" arrivalPosLat="0.00" arrivalSpeed="12.22" duration="27.60" routeLength="289.97" waitingTime="0.00" waitingCount="0" stopTime="0.00" timeLoss="5.23" rerouteNo="0" devices="tripinfo_vehicle_58 emissions_vehicle_58 battery_vehicle_58" vType="human" speedFactor="1.02" vaporized="">
        <emissions CO_abs="0" CO2_abs="0" HC_abs="0" PMx_abs="0" NOx_abs="0" fuel_abs="0" electricity_abs="78.587788"/>
    </tripinfo>
    <tripinfo id="vehicle_55" depart="6.80" departLane="road3_0" departPos="4.10" departPosLat="0.00" departSpeed="0.18" departDelay="2.40" arrival="29.60" arrivalLane="-road2_0" arrivalPos="19.96" arrivalPosLat="0.00" arrivalSpeed="12.63" duration="22.80" routeLength="122.77" waitingTime="2.80" waitingCount="1" stopTime="0.00" timeLoss="12.03" rerouteNo="1" devices="tripinfo_vehicle_55 routing_vehicle_55 emissions_vehicle_55 battery_vehicle_55" vType="human" speedFactor="1.00" vaporized="">
        <emissions CO_abs="0" CO2_abs="0" HC_abs="0" PMx_abs="0" NOx_abs="0" fuel_abs="0" electricity_abs="66.365607"/>
    </tripinfo>
    <tripinfo id="rl_0" depart="3.60" departLane="road0_0" departPos="4.10" departPosLat="0.00" departSpeed="6.73" departDelay="0.00" arrival="32.00" arrivalLane="-road1_0" arrivalPos="19.96" arrivalPosLat="0.00" arrivalSpeed="12.32" duration="28.40" routeLength="289.97" waitingTime="0.00" waitingCount="0" stopTime="0.00" timeLoss="6.19" rerouteNo="0" devices="tripinfo_rl_0 emissions_rl_0 battery_rl_0 driverstaterl_0" vType="rlAnget" speedFactor="1.03" vaporized="">
        <emissions CO_abs="0" CO2_abs="0" HC_abs="0" PMx_abs="0" NOx_abs="0" fuel_abs="0" electricity_abs="92.047852"/>
    </tripinfo>
    <tripinfo id="vehicle_65" depart="1.20" departLane="road2_0" departPos="4.10" departPosLat="0.00" departSpeed="1.05" departDelay="0.00" arrival="32.80" arrivalLane="-road3_0" arrivalPos="19.96" arrivalPosLat="0.00" arrivalSpeed="11.51" duration="31.60" routeLength="289.97" waitingTime="0.00" waitingCount="0" stopTime="0.00" timeLoss="6.43" rerouteNo="1" devices="tripinfo_vehicle_65 routing_vehicle_65 emissions_vehicle_65 battery_vehicle_65" vType="human" speedFactor="0.88" vaporized="">
        <emissions CO_abs="0" CO2_abs="0" HC_abs="0" PMx_abs="0" NOx_abs="0" fuel_abs="0" electricity_abs="89.424647"/>
    </tripinfo>
    <tripinfo id="vehicle_2" depart="5.20" departLane="road0_0" departPos="4.10" departPosLat="0.00" departSpeed="3.67" departDelay="0.00" arrival="35.20" arrivalLane="-road2_0" arrivalPos="19.96" arrivalPosLat="0.00" arrivalSpeed="11.94" duration="30.00" routeLength="206.37" waitingTime="5.60" waitingCount="1" stopTime="0.00" timeLoss="13.81" rerouteNo="0" devices="tripinfo_vehicle_2 emissions_vehicle_2 battery_vehicle_2" vType="human" speedFactor="1.01" vaporized="">
        <emissions CO_abs="0" CO2_abs="0" HC_abs="0" PMx_abs="0" NOx_abs="0" fuel_abs="0" electricity_abs="76.489905"/>
    </tripinfo>
    <tripinfo id="vehicle_36" depart="4.40" departLane="road2_0" departPos="4.10" departPosLat="0.00" departSpeed="7.35" departDelay="0.00" arrival="35.20" arrivalLane="-road3_0" arrivalPos="19.96" arrivalPosLat="0.00" arrivalSpeed="11.96" duration="30.80" routeLength="289.97" waitingTime="0.00" waitingCount="0" stopTime="0.00" timeLoss="8.00" rerouteNo="1" devices="tripinfo_vehicle_36 routing_vehicle_36 emissions_vehicle_36 battery_vehicle_36" vType="human" speedFactor="0.97" vaporized="">
        <emissions CO_abs="0" CO2_abs="0" HC_abs="0" PMx_abs="0" NOx_abs="0" fuel_abs="0" electricity_abs="78.326186"/>
    </tripinfo>
    <tripinfo id="vehicle_45" depart="9.60" departLane="road1_0" departPos="4.10" departPosLat="0.00" departSpeed="2.64" departDelay="1.60" arrival="37.20" arrivalLane="-road3_0" arrivalPos="19.96" arrivalPosLat="0.00" arrivalSpeed="12.56" duration="27.60" routeLength="206.37" waitingTime="0.00" waitingCount="0" stopTime="0.00" timeLoss="11.31" rerouteNo="1" devices="tripinfo_vehicle_45 routing_vehicle_45 emissions_vehicle_45 battery_vehicle_45" vType="human" speedFactor="1.09" vaporized="">
        <emissions CO_abs="0" CO2_abs="0" HC_abs="0" PMx_abs="0" NOx_abs="0" fuel_abs="0" electricity_abs="74.857186"/>
    </tripinfo>
    <tripinfo id="vehicle_11" depart="6.80" departLane="road0_0" departPos="4.10" departPosLat="0.00" departSpeed="4.24" departDelay="0.00" arrival="37.60" arrivalLane="-road2_0" arrivalPos="19.96" arrivalPosLat="0.00" arrivalSpeed="11.96" duration="30.80" routeLength="206.37" waitingTime="4.40" waitingCount="1" stopTime="0.00" timeLoss="14.15" rerouteNo="0" devices="tripinfo_vehicle_11 emissions_vehicle_11 battery_vehicle_11" vType="human" speedFactor="1.03" vaporized="">
        <emissions CO_abs="0" CO2_abs="0" HC_abs="0" PMx_abs="0" NOx_abs="0" fuel_abs="0" electricity_abs="74.914731"/>
    </tripinfo>
    <tripinfo id="vehicle_12" depart="9.60" departLane="road3_0" departPos="4.10" departPosLat="0.00" departSpeed="1.50" departDelay="1.20" arrival="39.20" arrivalLane="-road1_0" arrivalPos="19.96" arrivalPosLat="0.00" arrivalSpeed="12.32" duration="29.60" routeLength="206.37" waitingTime="1.20" waitingCount="1" stopTime="0.00" timeLoss="13.35" rerouteNo="1" devices="tripinfo_vehicle_12 routing_vehicle_12 emissions_vehicle_12 battery_vehicle_12" vType="human" speedFactor="1.05" vaporized="">
        <emissions CO_abs="0" CO2_abs="0" HC_abs="0" PMx_abs="0" NOx_abs="0" fuel_abs="0" electricity_abs="82.235142"/>
    </tripinfo>
    <tripinfo id="vehicle_7" depart="12.00" departLane="road1_0" departPos="4.10" departPosLat="0.00" departSpeed="2.09" departDelay="3.60" arrival="40.40" arrivalLane="-road3_0" arrivalPos="19.96" arrivalPosLat="0.00" arrivalSpeed="11.12" duration="28.40" routeLength="206.37" waitingTime="0.00" waitingCount="0" stopTime="0.00" timeLoss="9.83" rerouteNo="1" devices="tripinfo_vehicle_7 routing_vehicle_7 emissions_vehicle_7 battery_vehicle_7" vType="human" speedFactor="0.89" vaporized="">
        <emissions CO_abs="0" CO2_abs="0" HC_abs="0" PMx_abs="0" NOx_abs="0" fuel_abs="0" electricity_abs="64.765561"/>
    </tripinfo>
    <tripinfo id="vehicle_75" depart="4.80" departLane="road3_0" departPos="4.10" departPosLat="0.00" departSpeed="2.31" departDelay="2.40" arrival="42.00" arrivalLane="-road0_0" arrivalPos="19.96" arrivalPosLat="0.00" arrivalSpeed="11.36" duration="37.20" routeLength="289.97" waitingTime="4.40" waitingCount="1" stopTime="0.00" timeLoss="14.84" rerouteNo="1" devices="tripinfo_vehicle_75 routing_vehicle_75 emissions_vehicle_75 battery_vehicle_75" vType="human" speedFactor="0.98" vaporized="">
        <emissions CO_abs="0" CO2_abs="0" HC_abs="0" PMx_abs="0" NOx_abs="0" fuel_abs="0" electricity_abs="94.472478"/>
    </tripinfo>
    <tripinfo id="vehicle_76" depart="16.80" departLane="road1_0" departPos="4.10" departPosLat="0.00" departSpeed="2.90" departDelay="4.40" arrival="44.40" arrivalLane="-road3_0" arrivalPos="19.96" arrivalPosLat="0.00" arrivalSpeed="11.73" duration="27.60" routeLength="206.37" waitingTime="0.00" waitingCount="0" stopTime="0.00" timeLoss="11.29" rerouteNo="1" devices="tripinfo_vehicle_76 routing_vehicle_76 emissions_vehicle_76 battery_vehicle_76" vType="human" speedFactor="1.03" vaporized="">
        <emissions CO_abs="0" CO2_abs="0" HC_abs="0" PMx_abs="0" NOx_abs="0" fuel_abs="0" electricity_abs="67.465421"/>
    </tripinfo>
    <tripinfo id="vehicle_32" depart="19.20" departLane="road1_0" departPos="4.10" departPosLat="0.00" departSpeed="0.88" departDelay="3.60" arrival="46.80" arrivalLane="-road3_0" arrivalPos="19.96" arrivalPosLat="0.00" arrivalSpeed="12.37" duration="27.60" routeLength="206.37" waitingTime="0.00" waitingCount="0" stopTime="0.00" timeLoss="11.16" rerouteNo="1" devices="tripinfo_vehicle_32 routing_vehicle_32 emissions_vehicle_32 battery_vehicle_32" vType="human" speedFactor="1.01" vaporized="">
        <emissions CO_abs="0" CO2_abs="0" HC_abs="0" PMx_abs="0" NOx_abs="0" fuel_abs="0" electricity_abs="72.997455"/>
    </tripinfo>
    <tripinfo id="vehicle_28" depart="32.40" departLane="road2_0" departPos="4.10" departPosLat="0.00" departSpeed="1.19" departDelay="18.80" arrival="48.00" arrivalLane="-road1_0" arrivalPos="19.96" arrivalPosLat="0.00" arrivalSpeed="12.58" duration="15.60" routeLength="122.77" waitingTime="0.00" waitingCount="0" stopTime="0.00" timeLoss="5.58" rerouteNo="1" devices="tripinfo_vehicle_28 routing_vehicle_28 emissions_vehicle_28 battery_vehicle_28" vType="human" speedFactor="1.13" vaporized="">
        <emissions CO_abs="0" CO2_abs="0" HC_abs="0" PMx_abs="0" NOx_abs="0" fuel_abs="0" electricity_abs="69.017042"/>
    </tripinfo>
    <tripinfo id="vehicle_38" depart="14.80" departLane="road1_0" departPos="4.10" departPosLat="0.00" departSpeed="0.37" departDelay="5.20" arrival="49.20" arrivalLane="-road2_0" arrivalPos="19.96" arrivalPosLat="0.00" arrivalSpeed="13.11" duration="34.40" routeLength="289.97" waitingTime="0.00" waitingCount="0" stopTime="0.00" timeLoss="12.34" rerouteNo="1" devices="tripinfo_vehicle_38 routing_vehicle_38 emissions_vehicle_38 battery_vehicle_38" vType="human" speedFactor="1.10" vaporized="">
        <emissions CO_abs="0" CO2_abs="0" HC_abs="0" PMx_abs="0" NOx_abs="0" fuel_abs="0" electricity_abs="99.409114"/>
    </tripinfo>
    <tripinfo id="vehicle_43" depart="8.40" departLane="road0_0" departPos="4.10" departPosLat="0.00" departSpeed="0.55" departDelay="1.60" arrival="49.20" arrivalLane="-road3_0" arrivalPos="19.96" arrivalPosLat="0.00" arrivalSpeed="12.35" duration="40.80" routeLength="122.77" waitingTime="16.00" waitingCount="2" stopTime="0.00" timeLoss="30.34" rerouteNo="0" devices="tripinfo_vehicle_43 emissions_vehicle_43 battery_vehicle_43" vType="human" speedFactor="1.04" vaporized="">
        <emissions CO_abs="0" CO2_abs="0" HC_abs="0" PMx_abs="0" NOx_abs="0" fuel_abs="0" electricity_abs="58.850016"/>
    </tripinfo>
    <tripinfo id="vehicle_34" depart="21.20" departLane="road1_0" departPos="4.10" departPosLat="0.00" departSpeed="2.90" departDelay="5.60" arrival="51.20" arrivalLane="-road2_0" arrivalPos="19.96" arrivalPosLat="0.00" arrivalSpeed="11.59" duration="30.00" routeLength="289.97" waitingTime="0.00" waitingCount="0" stopTime="0.00" timeLoss="7.53" rerouteNo="1" devices="tripinfo_vehicle_34 routing_vehicle_34 emissions_vehicle_34 battery_vehicle_34" vType="human" speedFactor="0.99" vaporized="">
        <emissions CO_abs="0" CO2_abs="0" HC_abs="0" PMx_abs="0" NOx_abs="0" fuel_abs="0" electricity_abs="95.596802"/>
    </tripinfo>
    <tripinfo id="vehicle_9" depart="7.20" departLane="road2_0" departPos="4.10" departPosLat="0.00" departSpeed="0.38" departDelay="1.20" arrival="51.60" arrivalLane="-road0_0" arrivalPos="19.96" arrivalPosLat="0.00" arrivalSpeed="11.19" duration="44.40" routeLength="206.37" waitingTime="16.40" waitingCount="1" stopTime="0.00" timeLoss="25.15" rerouteNo="1" devices="tripinfo_vehicle_9 routing_vehicle_9 emissions_vehicle_9 battery_vehicle_9" vType="human" speedFactor="0.86" vaporized="">
        <emissions CO_abs="0" CO2_abs="0" HC_abs="0" PMx_abs="0" NOx_abs="0" fuel_abs="0" electricity_abs="70.050008"/>
    </tripinfo>
    <tripinfo id="vehicle_40" depart="37.20" departLane="road2_0" departPos="4.10" departPosLat="0.00" departSpeed="2.63" departDelay="20.00" arrival="53.20" arrivalLane="-road1_0" arrivalPos="19.96" arrivalPosLat="0.00" arrivalSpeed="12.69" duration="16.00" routeLength="122.77" waitingTime="0.00" waitingCount="0" stopTime="0.00" timeLoss="5.76" rerouteNo="1" devices="tripinfo_vehicle_40 routing_vehicle_40 emissions_vehicle_40 battery_vehicle_40" vType="human" speedFactor="1.03" vaporized="">
        <emissions CO_abs="0" CO2_abs="0" HC_abs="0" PMx_abs="0" NOx_abs="0" fuel_abs="0" electricity_abs="65.166980"/>
    </tripinfo>
    <tripinfo id="vehicle_10" depart="39.20" departLane="road2_0" departPos="4.10" departPosLat="0.00" departSpeed="2.83" departDelay="21.60" arrival="55.60" arrivalLane="-road1_0" arrivalPos="19.96" arrivalPosLat="0.00" arrivalSpeed="12.17" duration="16.40" routeLength="122.77" waitingTime="0.00" waitingCount="0" stopTime="0.00" timeLoss="6.28" rerouteNo="1" devices="tripinfo_vehicle_10 routing_vehicle_10 emissions_vehicle_10 battery_vehicle_10" vType="human" speedFactor="1.09" vaporized="">
        <emissions CO_abs="0" CO2_abs="0" HC_abs="0" PMx_abs="0" NOx_abs="0" fuel_abs="0" electricity_abs="59.507611"/>
    </tripinfo>
    <tripinfo id="vehicle_24" depart="38.40" departLane="road0_0" departPos="4.10" departPosLat="0.00" departSpeed="3.66" departDelay="29.20" arrival="56.80" arrivalLane="-road3_0" arrivalPos="19.96" arrivalPosLat="0.00" arrivalSpeed="10.96" duration="18.40" routeLength="122.77" waitingTime="0.00" waitingCount="0" stopTime="0.00" timeLoss="5.99" rerouteNo="0" devices="tripinfo_vehicle_24 emissions_vehicle_24 battery_vehicle_24" vType="human" speedFactor="0.83" vaporized="">
        <emissions CO_abs="0" CO2_abs="0" HC_abs="0" PMx_abs="0" NOx_abs="0" fuel_abs="0" electricity_abs="47.135305"/>
    </tripinfo>
    <tripinfo id="vehicle_48" depart="20.40" departLane="road0_0" departPos="4.10" departPosLat="0.00" departSpeed="1.51" departDelay="11.60" arrival="60.00" arrivalLane="-road2_0" arrivalPos="19.96" arrivalPosLat="0.00" arrivalSpeed="11.54" duration="39.60" routeLength="206.37" waitingTime="9.60" waitingCount="1" stopTime="0.00" timeLoss="20.80" rerouteNo="0" devices="tripinfo_vehicle_48 emissions_vehicle_48 battery_vehicle_48" vType="human" speedFactor="0.88" vaporized="">
        <emissions CO_abs="0" CO2_abs="0" HC_abs="0" PMx_abs="0" NOx_abs="0" fuel_abs="0" electricity_abs="69.406124"/>
    </tripinfo>
    <tripinfo id="vehicle_5" depart="23.20" departLane="road1_0" departPos="4.10" departPosLat="0.00" departSpeed="2.46" departDelay="5.60" arrival="60.80" arrivalLane="-road0_0" arrivalPos="19.96" arrivalPosLat="0.00" arrivalSpeed="10.83" duration="37.60" routeLength="122.77" waitingTime="16.40" waitingCount="1" stopTime="0.00" timeLoss="25.09" rerouteNo="1" devices="tripinfo_vehicle_5 routing_vehicle_5 emissions_vehicle_5 battery_vehicle_5" vType="human" speedFactor="0.83" vaporized="">
        <emissions CO_abs="0" CO2_abs="0" HC_abs="0" PMx_abs="0" NOx_abs="0" fuel_abs="0" electricity_abs="48.653853"/>
    </tripinfo>
    <tripinfo id="vehicle_18" depart="13.60" departLane="road2_0" departPos="4.10" departPosLat="0.00" departSpeed="1.90" departDelay="1.20" arrival="61.60" arrivalLane="-road3_0" arrivalPos="19.96" arrivalPosLat="0.00" arrivalSpeed="12.96" duration="48.00" routeLength="289.97" waitingTime="12.80" waitingCount="1" stopTime="0.00" timeLoss="23.98" rerouteNo="1" devices="tripinfo_vehicle_18 routing_vehicle_18 emissions_vehicle_18 battery_vehicle_18" vType="human" speedFactor="0.94" vaporized="">
        <emissions CO_abs="0" CO2_abs="0" HC_abs="0" PMx_abs="0" NOx_abs="0" fuel_abs="0" electricity_abs="101.791460"/>
    </tripinfo>
    <tripinfo id="vehicle_57" depart="17.60" departLane="road0_0" departPos="4.10" departPosLat="0.00" departSpeed="1.33" departDelay="9.60" arrival="62.00" arrivalLane="-road2_0" arrivalPos="19.96" arrivalPosLat="0.00" arrivalSpeed="12.30" duration="44.40" routeLength="206.37" waitingTime="10.40" waitingCount="1" stopTime="0.00" timeLoss="28.21" rerouteNo="0" devices="tripinfo_vehicle_57 emissions_vehicle_57 battery_vehicle_57" vType="human" speedFactor="1.14" vaporized="">
        <emissions CO_abs="0" CO2_abs="0" HC_abs="0" PMx_abs="0" NOx_abs="0" fuel_abs="0" electricity_abs="71.406057"/>
    </tripinfo>
    <tripinfo id="vehicle_78" depart="45.20" departLane="road2_0" departPos="4.10" departPosLat="0.00" departSpeed="2.72" departDelay="21.20" arrival="62.40" arrivalLane="-road1_0" arrivalPos="19.96" arrivalPosLat="0.00" arrivalSpeed="13.05" duration="17.20" routeLength="122.77" waitingTime="0.00" waitingCount="0" stopTime="0.00" timeLoss="6.89" rerouteNo="1" devices="tripinfo_vehicle_78 routing_vehicle_78 emissions_vehicle_78 battery_vehicle_78" vType="human" speedFactor="1.01" vaporized="">
        <emissions CO_abs="0" CO2_abs="0" HC_abs="0" PMx_abs="0" NOx_abs="0" fuel_abs="0" electricity_abs="63.438611"/>
    </tripinfo>
    <tripinfo id="vehicle_60" depart="25.20" departLane="road1_0" departPos="4.10" departPosLat="0.00" departSpeed="1.83" departDelay="7.60" arrival="62.80" arrivalLane="-road0_0" arrivalPos="19.96" arrivalPosLat="0.00" arrivalSpeed="13.34" duration="37.60" routeLength="122.77" waitingTime="15.60" waitingCount="1" stopTime="0.00" timeLoss="27.18" rerouteNo="1" devices="tripinfo_vehicle_60 routing_vehicle_60 emissions_vehicle_60 battery_vehicle_60" vType="human" speedFactor="1.08" vaporized="">
        <emissions CO_abs="0" CO2_abs="0" HC_abs="0" PMx_abs="0" NOx_abs="0" fuel_abs="0" electricity_abs="66.483444"/>
    </tripinfo>
    <tripinfo id="vehicle_62" depart="12.00" departLane="road2_0" departPos="4.10" departPosLat="0.00" departSpeed="5.22" departDelay="0.00" arrival="64.00" arrivalLane="-road3_0" arrivalPos="19.96" arrivalPosLat="0.00" arrivalSpeed="11.05" duration="52.00" routeLength="289.97" waitingTime="14.00" waitingCount="1" stopTime="0.00" timeLoss="29.59" rerouteNo="1" devices="tripinfo_vehicle_62 routing_vehicle_62 emissions_vehicle_62 battery_vehicle_62" vType="human" speedFactor="1.02" vaporized="">
        <emissions CO_abs="0" CO2_abs="0" HC_abs="0" PMx_abs="0" NOx_abs="0" fuel_abs="0" electricity_abs="78.911855"/>
    </tripinfo>
    <tripinfo id="vehicle_16" depart="35.60" departLane="road0_0" departPos="4.10" departPosLat="0.00" departSpeed="0.45" departDelay="26.40" arrival="64.80" arrivalLane="-road2_0" arrivalPos="19.96" arrivalPosLat="0.00" arrivalSpeed="11.02" duration="29.20" routeLength="206.37" waitingTime="0.00" waitingCount="0" stopTime="0.00" timeLoss="10.58" rerouteNo="0" devices="tripinfo_vehicle_16 emissions_vehicle_16 battery_vehicle_16" vType="human" speedFactor="0.88" vaporized="">
        <emissions CO_abs="0" CO2_abs="0" HC_abs="0" PMx_abs="0" NOx_abs="0" fuel_abs="0" electricity_abs="63.336685"/>
    </tripinfo>
    <tripinfo id="vehicle_68" depart="35.20" departLane="road2_0" departPos="4.10" departPosLat="0.00" departSpeed="3.11" departDelay="20.00" arrival="66.00" arrivalLane="-road3_0" arrivalPos="19.96" arrivalPosLat="0.00" arrivalSpeed="11.52" duration="30.80" routeLength="289.97" waitingTime="0.00" waitingCount="0" stopTime="0.00" timeLoss="8.75" rerouteNo="1" devices="tripinfo_vehicle_68 routing_vehicle_68 emissions_vehicle_68 battery_vehicle_68" vType="human" speedFactor="1.04" vaporized="">
        <emissions CO_abs="0" CO2_abs="0" HC_abs="0" PMx_abs="0" NOx_abs="0" fuel_abs="0" electricity_abs="93.138377"/>
    </tripinfo>
    <tripinfo id="vehicle_47" depart="41.20" departLane="road2_0" departPos="4.10" departPosLat="0.00" departSpeed="2.85" departDelay="20.80" arrival="66.80" arrivalLane="-road0_0" arrivalPos="19.96" arrivalPosLat="0.00" arrivalSpeed="12.03" duration="25.60" routeLength="206.37" waitingTime="0.00" waitingCount="0" stopTime="0.00" timeLoss="7.39" rerouteNo="1" devices="tripinfo_vehicle_47 routing_vehicle_47 emissions_vehicle_47 battery_vehicle_47" vType="human" speedFactor="0.90" vaporized="">
        <emissions CO_abs="0" CO2_abs="0" HC_abs="0" PMx_abs="0" NOx_abs="0" fuel_abs="0" electricity_abs="72.832618"/>
    </tripinfo>
    <tripinfo id="vehicle_8" depart="43.20" departLane="road2_0" departPos="4.10" departPosLat="0.00" departSpeed="2.28" departDelay="20.80" arrival="68.80" arrivalLane="-road0_0" arrivalPos="19.96" arrivalPosLat="0.00" arrivalSpeed="12.35" duration="25.60" routeLength="206.37" waitingTime="0.00" waitingCount="0" stopTime="0.00" timeLoss="8.12" rerouteNo="1" devices="tripinfo_vehicle_8 routing_vehicle_8 emissions_vehicle_8 battery_vehicle_8" vType="human" speedFactor="0.94" vaporized="">
        <emissions CO_abs="0" CO2_abs="0" HC_abs="0" PMx_abs="0" NOx_abs="0" fuel_abs="0" electricity_abs="76.184801"/>
    </tripinfo>
    <tripinfo id="vehicle_63" depart="44.80" departLane="road0_0" departPos="4.10" departPosLat="0.00" departSpeed="1.88" departDelay="26.80" arrival="71.20" arrivalLane="-road3_0" arrivalPos="19.96" arrivalPosLat="0.00" arrivalSpeed="11.17" duration="26.40" routeLength="122.77" waitingTime="2.40" waitingCount="1" stopTime="0.00" timeLoss="15.89" rerouteNo="0" devices="tripinfo_vehicle_63 emissions_vehicle_63 battery_vehicle_63" vType="human" speedFactor="0.99" vaporized="">
        <emissions CO_abs="0" CO2_abs="0" HC_abs="0" PMx_abs="0" NOx_abs="0" fuel_abs="0" electricity_abs="48.418149"/>
    </tripinfo>
    <tripinfo id="vehicle_73" depart="40.40" departLane="road0_0" departPos="4.10" departPosLat="0.00" departSpeed="2.29" departDelay="30.80" arrival="71.20" arrivalLane="-road1_0" arrivalPos="19.96" arrivalPosLat="0.00" arrivalSpeed="11.89" duration="30.80" routeLength="289.97" waitingTime="0.00" waitingCount="0" stopTime="0.00" timeLoss="8.54" rerouteNo="0" devices="tripinfo_vehicle_73 emissions_vehicle_73 battery_vehicle_73" vType="human" speedFactor="1.06" vaporized="">
        <emissions CO_abs="0" CO2_abs="0" HC_abs="0" PMx_abs="0" NOx_abs="0" fuel_abs="0" electricity_abs="96.906640"/>
    </tripinfo>
    <tripinfo id="vehicle_72" depart="54.40" departLane="road0_0" departPos="4.10" departPosLat="0.00" departSpeed="1.38" departDelay="36.00" arrival="73.20" arrivalLane="-road3_0" arrivalPos="19.96" arrivalPosLat="0.00" arrivalSpeed="12.11" duration="18.80" routeLength="122.77" waitingTime="0.00" waitingCount="0" stopTime="0.00" timeLoss="7.84" rerouteNo="0" devices="tripinfo_vehicle_72 emissions_vehicle_72 battery_vehicle_72" vType="human" speedFactor="0.94" vaporized="">
        <emissions CO_abs="0" CO2_abs="0" HC_abs="0" PMx_abs="0" NOx_abs="0" fuel_abs="0" electricity_abs="57.600932"/>
    </tripinfo>
    <tripinfo id="vehicle_69" depart="57.20" departLane="road3_0" departPos="4.10" departPosLat="0.00" departSpeed="1.51" departDelay="42.40" arrival="74.00" arrivalLane="-road2_0" arrivalPos="19.96" arrivalPosLat="0.00" arrivalSpeed="12.13" duration="16.80" routeLength="122.77" waitingTime="0.00" waitingCount="0" stopTime="0.00" timeLoss="6.33" rerouteNo="1" devices="tripinfo_vehicle_69 routing_vehicle_69 emissions_vehicle_69 battery_vehicle_69" vType="human" speedFactor="1.02" vaporized="">
        <emissions CO_abs="0" CO2_abs="0" HC_abs="0" PMx_abs="0" NOx_abs="0" fuel_abs="0" electricity_abs="60.192491"/>
    </tripinfo>
    <tripinfo id="vehicle_23" depart="51.60" departLane="road2_0" departPos="4.10" departPosLat="0.00" departSpeed="2.64" departDelay="24.80" arrival="75.60" arrivalLane="-road0_0" arrivalPos="19.96" arrivalPosLat="0.00" arrivalSpeed="12.22" duration="24.00" routeLength="206.37" waitingTime="0.00" waitingCount="0" stopTime="0.00" timeLoss="5.70" rerouteNo="1" devices="tripinfo_vehicle_23 routing_vehicle_23 emissions_vehicle_23 battery_vehicle_23" vType="human" speedFactor="0.89" vaporized="">