<?xml version="1.0" encoding="UTF-8"?>

<!-- generated on 2025-08-10 10:42:52 by Eclipse SUMO sumo Version v1_20_0+0085-e155ab8699b
<configuration xmlns:xsi="http://www.w3.org/2001/XMLSchema-instance" xsi:noNamespaceSchemaLocation="http://sumo.dlr.de/xsd/sumoConfiguration.xsd">

    <input>
        <net-file value="../networks/roundabout.net.xml"/>
        <route-files value="../networks/routes1.rou.xml"/>
    </input>

    <output>
        <output-prefix value="88-"/>
        <battery-output.precision value="4"/>
        <tripinfo-output value="../networks/output_data/output_default/tripinfo/tripinfo-output.xml"/>
        <collision-output value="../networks/output_data/output_default/collision/collision-output.xml"/>
    </output>

    <time>
        <begin value="0"/>
        <step-length value="0.4"/>
    </time>

    <processing>
        <step-method.ballistic value="true"/>
        <lateral-resolution value="3.2"/>
        <collision.action value="warn"/>
        <collision.check-junctions value="True"/>
        <collision.mingap-factor value="0"/>
        <time-to-teleport value="-1"/>
        <random-depart-offset value="5"/>
    </processing>

    <report>
        <no-warnings value="True"/>
        <no-step-log value="True"/>
    </report>

    <emissions>
        <device.emissions.probability value="1"/>
    </emissions>

    <battery>
        <device.battery.probability value="1"/>
    </battery>

    <traci_server>
        <remote-port value="34209"/>
    </traci_server>

    <gui_only>
        <quit-on-end value="True"/>
        <start value="True"/>
        <delay value="0"/>
    </gui_only>

</configuration>
-->

<tripinfos xmlns:xsi="http://www.w3.org/2001/XMLSchema-instance" xsi:noNamespaceSchemaLocation="http://sumo.dlr.de/xsd/tripinfo_file.xsd">
    <tripinfo id="vehicle_60" depart="0.00" departLane="road2_0" departPos="4.10" departPosLat="0.00" departSpeed="0.10" departDelay="0.00" arrival="15.20" arrivalLane="-road1_0" arrivalPos="19.96" arrivalPosLat="0.00" arrivalSpeed="13.58" duration="15.20" routeLength="122.77" waitingTime="0.00" waitingCount="0" stopTime="0.00" timeLoss="4.96" rerouteNo="1" devices="tripinfo_vehicle_60 routing_vehicle_60 emissions_vehicle_60 battery_vehicle_60" vType="human" speedFactor="1.08" vaporized="">
        <emissions CO_abs="0" CO2_abs="0" HC_abs="0" PMx_abs="0" NOx_abs="0" fuel_abs="0" electricity_abs="73.599553"/>
    </tripinfo>
    <tripinfo id="vehicle_72" depart="3.60" departLane="road1_0" departPos="4.10" departPosLat="0.00" departSpeed="0.15" departDelay="0.80" arrival="20.00" arrivalLane="-road0_0" arrivalPos="19.96" arrivalPosLat="0.00" arrivalSpeed="12.11" duration="16.40" routeLength="122.77" waitingTime="0.00" waitingCount="0" stopTime="0.00" timeLoss="5.34" rerouteNo="1" devices="tripinfo_vehicle_72 routing_vehicle_72 emissions_vehicle_72 battery_vehicle_72" vType="human" speedFactor="0.94" vaporized="">
        <emissions CO_abs="0" CO2_abs="0" HC_abs="0" PMx_abs="0" NOx_abs="0" fuel_abs="0" electricity_abs="61.726052"/>
    </tripinfo>
    <tripinfo id="vehicle_17" depart="1.20" departLane="road3_0" departPos="4.10" departPosLat="0.00" departSpeed="7.76" departDelay="0.00" arrival="22.80" arrivalLane="-road1_0" arrivalPos="19.96" arrivalPosLat="0.00" arrivalSpeed="12.85" duration="21.60" routeLength="206.37" waitingTime="0.00" waitingCount="0" stopTime="0.00" timeLoss="4.26" rerouteNo="1" devices="tripinfo_vehicle_17 routing_vehicle_17 emissions_vehicle_17 battery_vehicle_17" vType="human" speedFactor="0.94" vaporized="">
        <emissions CO_abs="0" CO2_abs="0" HC_abs="0" PMx_abs="0" NOx_abs="0" fuel_abs="0" electricity_abs="71.477946"/>
    </tripinfo>
    <tripinfo id="vehicle_39" depart="0.00" departLane="road0_0" departPos="4.10" departPosLat="0.00" departSpeed="5.75" departDelay="0.00" arrival="22.80" arrivalLane="-road2_0" arrivalPos="19.96" arrivalPosLat="0.00" arrivalSpeed="11.66" duration="22.80" routeLength="206.37" waitingTime="0.00" waitingCount="0" stopTime="0.00" timeLoss="4.67" rerouteNo="0" devices="tripinfo_vehicle_39 emissions_vehicle_39 battery_vehicle_39" vType="human" speedFactor="0.90" vaporized="">
        <emissions CO_abs="0" CO2_abs="0" HC_abs="0" PMx_abs="0" NOx_abs="0" fuel_abs="0" electricity_abs="65.742604"/>
    </tripinfo>
    <tripinfo id="vehicle_53" depart="2.00" departLane="road0_0" departPos="4.10" departPosLat="0.00" departSpeed="1.18" departDelay="0.00" arrival="24.80" arrivalLane="-road2_0" arrivalPos="19.96" arrivalPosLat="0.00" arrivalSpeed="12.30" duration="22.80" routeLength="206.37" waitingTime="0.00" waitingCount="0" stopTime="0.00" timeLoss="6.53" rerouteNo="0" devices="tripinfo_vehicle_53 emissions_vehicle_53 battery_vehicle_53" vType="human" speedFactor="1.10" vaporized="">
        <emissions CO_abs="0" CO2_abs="0" HC_abs="0" PMx_abs="0" NOx_abs="0" fuel_abs="0" electricity_abs="82.608557"/>
    </tripinfo>
    <tripinfo id="vehicle_15" depart="2.80" departLane="road1_0" departPos="4.10" departPosLat="0.00" departSpeed="7.84" departDelay="0.00" arrival="25.20" arrivalLane="-road3_0" arrivalPos="19.96" arrivalPosLat="0.00" arrivalSpeed="11.11" duration="22.40" routeLength="206.37" waitingTime="0.00" waitingCount="0" stopTime="0.00" timeLoss="4.84" rerouteNo="1" devices="tripinfo_vehicle_15 routing_vehicle_15 emissions_vehicle_15 battery_vehicle_15" vType="human" speedFactor="0.93" vaporized="">
        <emissions CO_abs="0" CO2_abs="0" HC_abs="0" PMx_abs="0" NOx_abs="0" fuel_abs="0" electricity_abs="57.593838"/>
    </tripinfo>
    <tripinfo id="vehicle_69" depart="2.00" departLane="road3_0" departPos="4.10" departPosLat="0.00" departSpeed="5.30" departDelay="0.00" arrival="25.20" arrivalLane="-road1_0" arrivalPos="19.96" arrivalPosLat="0.00" arrivalSpeed="12.84" duration="23.20" routeLength="206.37" waitingTime="0.00" waitingCount="0" stopTime="0.00" timeLoss="6.83" rerouteNo="1" devices="tripinfo_vehicle_69 routing_vehicle_69 emissions_vehicle_69 battery_vehicle_69" vType="human" speedFactor="1.02" vaporized="">
        <emissions CO_abs="0" CO2_abs="0" HC_abs="0" PMx_abs="0" NOx_abs="0" fuel_abs="0" electricity_abs="79.301030"/>
    </tripinfo>
    <tripinfo id="vehicle_68" depart="4.40" departLane="road2_0" departPos="4.10" departPosLat="0.00" departSpeed="2.61" departDelay="0.00" arrival="25.60" arrivalLane="-road0_0" arrivalPos="19.96" arrivalPosLat="0.00" arrivalSpeed="12.30" duration="21.20" routeLength="206.37" waitingTime="0.00" waitingCount="0" stopTime="0.00" timeLoss="4.73" rerouteNo="1" devices="tripinfo_vehicle_68 routing_vehicle_68 emissions_vehicle_68 battery_vehicle_68" vType="human" speedFactor="1.04" vaporized="">
        <emissions CO_abs="0" CO2_abs="0" HC_abs="0" PMx_abs="0" NOx_abs="0" fuel_abs="0" electricity_abs="83.129659"/>
    </tripinfo>
    <tripinfo id="vehicle_28" depart="3.60" departLane="road0_0" departPos="4.10" departPosLat="0.00" departSpeed="3.67" departDelay="1.20" arrival="27.20" arrivalLane="-road2_0" arrivalPos="19.96" arrivalPosLat="0.00" arrivalSpeed="12.32" duration="23.60" routeLength="206.37" waitingTime="0.00" waitingCount="0" stopTime="0.00" timeLoss="7.30" rerouteNo="0" devices="tripinfo_vehicle_28 emissions_vehicle_28 battery_vehicle_28" vType="human" speedFactor="1.13" vaporized="">
        <emissions CO_abs="0" CO2_abs="0" HC_abs="0" PMx_abs="0" NOx_abs="0" fuel_abs="0" electricity_abs="78.915085"/>
    </tripinfo>
    <tripinfo id="vehicle_34" depart="6.00" departLane="road1_0" departPos="4.10" departPosLat="0.00" departSpeed="3.96" departDelay="1.20" arrival="28.80" arrivalLane="-road3_0" arrivalPos="19.96" arrivalPosLat="0.00" arrivalSpeed="12.32" duration="22.80" routeLength="206.37" waitingTime="0.00" waitingCount="0" stopTime="0.00" timeLoss="6.32" rerouteNo="1" devices="tripinfo_vehicle_34 routing_vehicle_34 emissions_vehicle_34 battery_vehicle_34" vType="human" speedFactor="0.99" vaporized="">
        <emissions CO_abs="0" CO2_abs="0" HC_abs="0" PMx_abs="0" NOx_abs="0" fuel_abs="0" electricity_abs="77.461149"/>
    </tripinfo>
    <tripinfo id="rl_0" depart="6.00" departLane="road3_0" departPos="4.10" departPosLat="0.00" departSpeed="2.40" departDelay="2.00" arrival="29.60" arrivalLane="-road2_0" arrivalPos="19.96" arrivalPosLat="0.00" arrivalSpeed="12.32" duration="23.60" routeLength="122.77" waitingTime="4.80" waitingCount="1" stopTime="0.00" timeLoss="13.41" rerouteNo="1" devices="tripinfo_rl_0 routing_rl_0 emissions_rl_0 battery_rl_0 driverstaterl_0" vType="rlAnget" speedFactor="1.03" vaporized="">
        <emissions CO_abs="0" CO2_abs="0" HC_abs="0" PMx_abs="0" NOx_abs="0" fuel_abs="0" electricity_abs="59.704288"/>
    </tripinfo>
    <tripinfo id="vehicle_71" depart="7.60" departLane="road1_0" departPos="4.10" departPosLat="0.00" departSpeed="1.93" departDelay="2.80" arrival="30.00" arrivalLane="-road0_0" arrivalPos="19.96" arrivalPosLat="0.00" arrivalSpeed="11.71" duration="22.40" routeLength="122.77" waitingTime="2.80" waitingCount="1" stopTime="0.00" timeLoss="11.72" rerouteNo="1" devices="tripinfo_vehicle_71 routing_vehicle_71 emissions_vehicle_71 battery_vehicle_71" vType="human" speedFactor="0.97" vaporized="">
        <emissions CO_abs="0" CO2_abs="0" HC_abs="0" PMx_abs="0" NOx_abs="0" fuel_abs="0" electricity_abs="56.619964"/>
    </tripinfo>
    <tripinfo id="vehicle_21" depart="7.60" departLane="road0_0" departPos="4.10" departPosLat="0.00" departSpeed="3.47" departDelay="3.60" arrival="30.40" arrivalLane="-road3_0" arrivalPos="19.96" arrivalPosLat="0.00" arrivalSpeed="12.68" duration="22.80" routeLength="122.77" waitingTime="3.60" waitingCount="1" stopTime="0.00" timeLoss="12.38" rerouteNo="0" devices="tripinfo_vehicle_21 emissions_vehicle_21 battery_vehicle_21" vType="human" speedFactor="1.01" vaporized="">
        <emissions CO_abs="0" CO2_abs="0" HC_abs="0" PMx_abs="0" NOx_abs="0" fuel_abs="0" electricity_abs="60.594423"/>
    </tripinfo>
    <tripinfo id="vehicle_63" depart="10.00" departLane="road1_0" departPos="4.10" departPosLat="0.00" departSpeed="2.81" departDelay="4.80" arrival="32.40" arrivalLane="-road0_0" arrivalPos="19.96" arrivalPosLat="0.00" arrivalSpeed="12.42" duration="22.40" routeLength="122.77" waitingTime="1.20" waitingCount="1" stopTime="0.00" timeLoss="11.75" rerouteNo="1" devices="tripinfo_vehicle_63 routing_vehicle_63 emissions_vehicle_63 battery_vehicle_63" vType="human" speedFactor="0.99" vaporized="">
        <emissions CO_abs="0" CO2_abs="0" HC_abs="0" PMx_abs="0" NOx_abs="0" fuel_abs="0" electricity_abs="60.253733"/>
    </tripinfo>
    <tripinfo id="vehicle_45" depart="5.20" departLane="road0_0" departPos="4.10" departPosLat="0.00" departSpeed="1.92" departDelay="2.00" arrival="33.60" arrivalLane="-road1_0" arrivalPos="19.96" arrivalPosLat="0.00" arrivalSpeed="13.02" duration="28.40" routeLength="289.97" waitingTime="0.00" waitingCount="0" stopTime="0.00" timeLoss="6.03" rerouteNo="0" devices="tripinfo_vehicle_45 emissions_vehicle_45 battery_vehicle_45" vType="human" speedFactor="1.09" vaporized="">
        <emissions CO_abs="0" CO2_abs="0" HC_abs="0" PMx_abs="0" NOx_abs="0" fuel_abs="0" electricity_abs="110.159917"/>
    </tripinfo>
    <tripinfo id="vehicle_0" depart="3.60" departLane="road3_0" departPos="4.10" departPosLat="0.00" departSpeed="1.60" departDelay="0.40" arrival="34.40" arrivalLane="-road0_0" arrivalPos="19.96" arrivalPosLat="0.00" arrivalSpeed="10.95" duration="30.80" routeLength="289.97" waitingTime="0.00" waitingCount="0" stopTime="0.00" timeLoss="8.43" rerouteNo="1" devices="tripinfo_vehicle_0 routing_vehicle_0 emissions_vehicle_0 battery_vehicle_0" vType="human" speedFactor="1.06" vaporized="">
        <emissions CO_abs="0" CO2_abs="0" HC_abs="0" PMx_abs="0" NOx_abs="0" fuel_abs="0" electricity_abs="95.166743"/>
    </tripinfo>
    <tripinfo id="vehicle_55" depart="11.20" departLane="road0_0" departPos="4.10" departPosLat="0.00" departSpeed="1.37" departDelay="4.40" arrival="35.20" arrivalLane="-road3_0" arrivalPos="19.96" arrivalPosLat="0.00" arrivalSpeed="13.69" duration="24.00" routeLength="122.77" waitingTime="1.20" waitingCount="1" stopTime="0.00" timeLoss="13.53" rerouteNo="0" devices="tripinfo_vehicle_55 emissions_vehicle_55 battery_vehicle_55" vType="human" speedFactor="1.00" vaporized="">
        <emissions CO_abs="0" CO2_abs="0" HC_abs="0" PMx_abs="0" NOx_abs="0" fuel_abs="0" electricity_abs="68.065690"/>
    </tripinfo>
    <tripinfo id="vehicle_38" depart="5.60" departLane="road2_0" departPos="4.10" departPosLat="0.00" departSpeed="0.44" departDelay="0.00" arrival="38.00" arrivalLane="-road0_0" arrivalPos="19.96" arrivalPosLat="0.00" arrivalSpeed="12.62" duration="32.40" routeLength="206.37" waitingTime="4.40" waitingCount="2" stopTime="0.00" timeLoss="16.31" rerouteNo="1" devices="tripinfo_vehicle_38 routing_vehicle_38 emissions_vehicle_38 battery_vehicle_38" vType="human" speedFactor="1.10" vaporized="">
        <emissions CO_abs="0" CO2_abs="0" HC_abs="0" PMx_abs="0" NOx_abs="0" fuel_abs="0" electricity_abs="81.738419"/>
    </tripinfo>
    <tripinfo id="vehicle_14" depart="20.40" departLane="road2_0" departPos="4.10" departPosLat="0.00" departSpeed="2.85" departDelay="12.80" arrival="38.40" arrivalLane="-road1_0" arrivalPos="19.96" arrivalPosLat="0.00" arrivalSpeed="11.54" duration="18.00" routeLength="122.77" waitingTime="0.00" waitingCount="0" stopTime="0.00" timeLoss="7.76" rerouteNo="1" devices="tripinfo_vehicle_14 routing_vehicle_14 emissions_vehicle_14 battery_vehicle_14" vType="human" speedFactor="0.99" vaporized="">
        <emissions CO_abs="0" CO2_abs="0" HC_abs="0" PMx_abs="0" NOx_abs="0" fuel_abs="0" electricity_abs="51.537196"/>
    </tripinfo>
    <tripinfo id="vehicle_6" depart="9.60" departLane="road2_0" departPos="4.10" departPosLat="0.00" departSpeed="2.10" departDelay="3.60" arrival="40.40" arrivalLane="-road0_0" arrivalPos="19.96" arrivalPosLat="0.00" arrivalSpeed="12.07" duration="30.80" routeLength="206.37" waitingTime="2.40" waitingCount="1" stopTime="0.00" timeLoss="14.57" rerouteNo="1" devices="tripinfo_vehicle_6 routing_vehicle_6 emissions_vehicle_6 battery_vehicle_6" vType="human" speedFactor="1.05" vaporized="">
        <emissions CO_abs="0" CO2_abs="0" HC_abs="0" PMx_abs="0" NOx_abs="0" fuel_abs="0" electricity_abs="78.727414"/>
    </tripinfo>
    <tripinfo id="vehicle_27" depart="9.20" departLane="road0_0" departPos="4.10" departPosLat="0.00" departSpeed="3.16" departDelay="4.40" arrival="41.20" arrivalLane="-road2_0" arrivalPos="19.96" arrivalPosLat="0.00" arrivalSpeed="12.36" duration="32.00" routeLength="206.37" waitingTime="2.00" waitingCount="1" stopTime="0.00" timeLoss="14.74" rerouteNo="0" devices="tripinfo_vehicle_27 emissions_vehicle_27 battery_vehicle_27" vType="human" speedFactor="0.95" vaporized="">
        <emissions CO_abs="0" CO2_abs="0" HC_abs="0" PMx_abs="0" NOx_abs="0" fuel_abs="0" electricity_abs="75.528172"/>
    </tripinfo>
    <tripinfo id="vehicle_31" depart="24.40" departLane="road2_0" departPos="4.10" departPosLat="0.00" departSpeed="2.86" departDelay="12.40" arrival="42.40" arrivalLane="-road1_0" arrivalPos="19.96" arrivalPosLat="0.00" arrivalSpeed="12.21" duration="18.00" routeLength="122.77" waitingTime="0.00" waitingCount="0" stopTime="0.00" timeLoss="7.95" rerouteNo="1" devices="tripinfo_vehicle_31 routing_vehicle_31 emissions_vehicle_31 battery_vehicle_31" vType="human" speedFactor="1.15" vaporized="">
        <emissions CO_abs="0" CO2_abs="0" HC_abs="0" PMx_abs="0" NOx_abs="0" fuel_abs="0" electricity_abs="56.698342"/>
    </tripinfo>
    <tripinfo id="vehicle_3" depart="18.00" departLane="road2_0" departPos="4.10" departPosLat="0.00" departSpeed="1.16" departDelay="10.80" arrival="44.00" arrivalLane="-road0_0" arrivalPos="19.96" arrivalPosLat="0.00" arrivalSpeed="12.30" duration="26.00" routeLength="206.37" waitingTime="0.00" waitingCount="0" stopTime="0.00" timeLoss="9.55" rerouteNo="1" devices="tripinfo_vehicle_3 routing_vehicle_3 emissions_vehicle_3 battery_vehicle_3" vType="human" speedFactor="1.08" vaporized="">
        <emissions CO_abs="0" CO2_abs="0" HC_abs="0" PMx_abs="0" NOx_abs="0" fuel_abs="0" electricity_abs="76.955567"/>
    </tripinfo>
    <tripinfo id="vehicle_1" depart="18.40" departLane="road3_0" departPos="4.10" departPosLat="0.00" departSpeed="1.22" departDelay="9.60" arrival="45.20" arrivalLane="-road1_0" arrivalPos="19.96" arrivalPosLat="0.00" arrivalSpeed="11.26" duration="26.80" routeLength="206.37" waitingTime="0.00" waitingCount="0" stopTime="0.00" timeLoss="9.40" rerouteNo="1" devices="tripinfo_vehicle_1 routing_vehicle_1 emissions_vehicle_1 battery_vehicle_1" vType="human" speedFactor="0.94" vaporized="">
        <emissions CO_abs="0" CO2_abs="0" HC_abs="0" PMx_abs="0" NOx_abs="0" fuel_abs="0" electricity_abs="68.104820"/>
    </tripinfo>
    <tripinfo id="vehicle_20" depart="8.40" departLane="road3_0" departPos="4.10" departPosLat="0.00" departSpeed="3.90" departDelay="2.80" arrival="46.00" arrivalLane="-road0_0" arrivalPos="19.96" arrivalPosLat="0.00" arrivalSpeed="12.82" duration="37.60" routeLength="289.97" waitingTime="3.60" waitingCount="1" stopTime="0.00" timeLoss="15.32" rerouteNo="1" devices="tripinfo_vehicle_20 routing_vehicle_20 emissions_vehicle_20 battery_vehicle_20" vType="human" speedFactor="1.02" vaporized="">
        <emissions CO_abs="0" CO2_abs="0" HC_abs="0" PMx_abs="0" NOx_abs="0" fuel_abs="0" electricity_abs="98.901457"/>
    </tripinfo>
    <tripinfo id="vehicle_37" depart="23.20" departLane="road0_0" departPos="4.10" departPosLat="0.00" departSpeed="2.79" departDelay="11.60" arrival="46.00" arrivalLane="-road2_0" arrivalPos="19.96" arrivalPosLat="0.00" arrivalSpeed="12.98" duration="22.80" routeLength="206.37" waitingTime="0.00" waitingCount="0" stopTime="0.00" timeLoss="6.62" rerouteNo="0" devices="tripinfo_vehicle_37 emissions_vehicle_37 battery_vehicle_37" vType="human" speedFactor="1.18" vaporized="">
        <emissions CO_abs="0" CO2_abs="0" HC_abs="0" PMx_abs="0" NOx_abs="0" fuel_abs="0" electricity_abs="86.261419"/>
    </tripinfo>
    <tripinfo id="vehicle_47" depart="7.60" departLane="road2_0" departPos="4.10" departPosLat="0.00" departSpeed="3.81" departDelay="2.00" arrival="46.80" arrivalLane="-road3_0" arrivalPos="19.96" arrivalPosLat="0.00" arrivalSpeed="11.97" duration="39.20" routeLength="289.97" waitingTime="2.80" waitingCount="1" stopTime="0.00" timeLoss="14.70" rerouteNo="1" devices="tripinfo_vehicle_47 routing_vehicle_47 emissions_vehicle_47 battery_vehicle_47" vType="human" speedFactor="0.90" vaporized="">
        <emissions CO_abs="0" CO2_abs="0" HC_abs="0" PMx_abs="0" NOx_abs="0" fuel_abs="0" electricity_abs="89.533272"/>
    </tripinfo>
    <tripinfo id="vehicle_52" depart="10.40" departLane="road3_0" departPos="4.10" departPosLat="0.00" departSpeed="1.62" departDelay="4.00" arrival="48.40" arrivalLane="-road0_0" arrivalPos="19.96" arrivalPosLat="0.00" arrivalSpeed="11.77" duration="38.00" routeLength="289.97" waitingTime="2.40" waitingCount="1" stopTime="0.00" timeLoss="15.44" rerouteNo="1" devices="tripinfo_vehicle_52 routing_vehicle_52 emissions_vehicle_52 battery_vehicle_52" vType="human" speedFactor="1.02" vaporized="">
        <emissions CO_abs="0" CO2_abs="0" HC_abs="0" PMx_abs="0" NOx_abs="0" fuel_abs="0" electricity_abs="95.008350"/>
    </tripinfo>
    <tripinfo id="vehicle_33" depart="22.40" departLane="road2_0" departPos="4.10" departPosLat="0.00" departSpeed="2.85" departDelay="13.20" arrival="50.00" arrivalLane="-road0_0" arrivalPos="19.96" arrivalPosLat="0.00" arrivalSpeed="13.12" duration="27.60" routeLength="206.37" waitingTime="0.00" waitingCount="0" stopTime="0.00" timeLoss="11.73" rerouteNo="1" devices="tripinfo_vehicle_33 routing_vehicle_33 emissions_vehicle_33 battery_vehicle_33" vType="human" speedFactor="1.17" vaporized="">
        <emissions CO_abs="0" CO2_abs="0" HC_abs="0" PMx_abs="0" NOx_abs="0" fuel_abs="0" electricity_abs="78.363660"/>
    </tripinfo>
    <tripinfo id="vehicle_66" depart="27.60" departLane="road0_0" departPos="4.10" departPosLat="0.00" departSpeed="2.82" departDelay="15.20" arrival="50.00" arrivalLane="-road3_0" arrivalPos="19.96" arrivalPosLat="0.00" arrivalSpeed="11.47" duration="22.40" routeLength="122.77" waitingTime="0.40" waitingCount="1" stopTime="0.00" timeLoss="11.06" rerouteNo="0" devices="tripinfo_vehicle_66 emissions_vehicle_66 battery_vehicle_66" vType="human" speedFactor="0.91" vaporized="">
        <emissions CO_abs="0" CO2_abs="0" HC_abs="0" PMx_abs="0" NOx_abs="0" fuel_abs="0" electricity_abs="51.119050"/>
    </tripinfo>
    <tripinfo id="vehicle_12" depart="12.40" departLane="road1_0" departPos="4.10" departPosLat="0.00" departSpeed="1.50" departDelay="6.80" arrival="50.40" arrivalLane="-road2_0" arrivalPos="19.96" arrivalPosLat="0.00" arrivalSpeed="11.69" duration="38.00" routeLength="289.97" waitingTime="0.40" waitingCount="1" stopTime="0.00" timeLoss="15.76" rerouteNo="1" devices="tripinfo_vehicle_12 routing_vehicle_12 emissions_vehicle_12 battery_vehicle_12" vType="human" speedFactor="1.05" vaporized="">
        <emissions CO_abs="0" CO2_abs="0" HC_abs="0" PMx_abs="0" NOx_abs="0" fuel_abs="0" electricity_abs="93.252631"/>
    </tripinfo>
    <tripinfo id="vehicle_48" depart="18.40" departLane="road0_0" departPos="4.10" departPosLat="0.00" departSpeed="0.85" departDelay="9.60" arrival="51.20" arrivalLane="-road1_0" arrivalPos="19.96" arrivalPosLat="0.00" arrivalSpeed="11.29" duration="32.80" routeLength="289.97" waitingTime="0.00" waitingCount="0" stopTime="0.00" timeLoss="7.68" rerouteNo="0" devices="tripinfo_vehicle_48 emissions_vehicle_48 battery_vehicle_48" vType="human" speedFactor="0.88" vaporized="">
        <emissions CO_abs="0" CO2_abs="0" HC_abs="0" PMx_abs="0" NOx_abs="0" fuel_abs="0" electricity_abs="86.361642"/>
    </tripinfo>
    <tripinfo id="vehicle_79" depart="25.20" departLane="road0_0" departPos="4.10" departPosLat="0.00" departSpeed="2.78" departDelay="13.60" arrival="52.80" arrivalLane="-road2_0" arrivalPos="19.96" arrivalPosLat="0.00" arrivalSpeed="12.89" duration="27.60" routeLength="206.37" waitingTime="0.80" waitingCount="1" stopTime="0.00" timeLoss="11.28" rerouteNo="0" devices="tripinfo_vehicle_79 emissions_vehicle_79 battery_vehicle_79" vType="human" speedFactor="1.09" vaporized="">
        <emissions CO_abs="0" CO2_abs="0" HC_abs="0" PMx_abs="0" NOx_abs="0" fuel_abs="0" electricity_abs="85.819752"/>
    </tripinfo>
    <tripinfo id="vehicle_2" depart="21.20" departLane="road0_0" departPos="4.10" departPosLat="0.00" departSpeed="0.20" departDelay="11.20" arrival="53.20" arrivalLane="-road1_0" arrivalPos="19.96" arrivalPosLat="0.00" arrivalSpeed="11.89" duration="32.00" routeLength="289.97" waitingTime="0.00" waitingCount="0" stopTime="0.00" timeLoss="9.58" rerouteNo="0" devices="tripinfo_vehicle_2 emissions_vehicle_2 battery_vehicle_2" vType="human" speedFactor="1.01" vaporized="">
        <emissions CO_abs="0" CO2_abs="0" HC_abs="0" PMx_abs="0" NOx_abs="0" fuel_abs="0" electricity_abs="94.783740"/>
    </tripinfo>
    <tripinfo id="vehicle_16" depart="37.60" departLane="road0_0" departPos="4.10" departPosLat="0.00" departSpeed="3.34" departDelay="23.20" arrival="55.20" arrivalLane="-road3_0" arrivalPos="19.96" arrivalPosLat="0.00" arrivalSpeed="11.44" duration="17.60" routeLength="122.77" waitingTime="0.00" waitingCount="0" stopTime="0.00" timeLoss="5.75" rerouteNo="0" devices="tripinfo_vehicle_16 emissions_vehicle_16 battery_vehicle_16" vType="human" speedFactor="0.88" vaporized="">
        <emissions CO_abs="0" CO2_abs="0" HC_abs="0" PMx_abs="0" NOx_abs="0" fuel_abs="0" electricity_abs="51.823114"/>
    </tripinfo>
    <tripinfo id="vehicle_65" depart="24.00" departLane="road1_0" departPos="4.10" departPosLat="0.00" departSpeed="1.61" departDelay="14.00" arrival="56.80" arrivalLane="-road0_0" arrivalPos="19.96" arrivalPosLat="0.00" arrivalSpeed="11.56" duration="32.80" routeLength="122.77" waitingTime="11.20" waitingCount="1" stopTime="0.00" timeLoss="21.07" rerouteNo="1" devices="tripinfo_vehicle_65 routing_vehicle_65 emissions_vehicle_65 battery_vehicle_65" vType="human" speedFactor="0.88" vaporized="">
        <emissions CO_abs="0" CO2_abs="0" HC_abs="0" PMx_abs="0" NOx_abs="0" fuel_abs="0" electricity_abs="56.659188"/>
    </tripinfo>
    <tripinfo id="vehicle_10" depart="41.20" departLane="road1_0" departPos="4.10" departPosLat="0.00" departSpeed="1.20" departDelay="28.40" arrival="58.40" arrivalLane="-road0_0" arrivalPos="19.96" arrivalPosLat="0.00" arrivalSpeed="12.47" duration="17.20" routeLength="122.77" waitingTime="0.00" waitingCount="0" stopTime="0.00" timeLoss="7.03" rerouteNo="1" devices="tripinfo_vehicle_10 routing_vehicle_10 emissions_vehicle_10 battery_vehicle_10" vType="human" speedFactor="1.09" vaporized="">
        <emissions CO_abs="0" CO2_abs="0" HC_abs="0" PMx_abs="0" NOx_abs="0" fuel_abs="0" electricity_abs="63.228541"/>
    </tripinfo>
    <tripinfo id="vehicle_46" depart="35.20" departLane="road0_0" departPos="4.10" departPosLat="0.00" departSpeed="1.21" departDelay="21.20" arrival="59.20" arrivalLane="-road2_0" arrivalPos="19.96" arrivalPosLat="0.00" arrivalSpeed="12.10" duration="24.00" routeLength="206.37" waitingTime="0.00" waitingCount="0" stopTime="0.00" timeLoss="7.50" rerouteNo="0" devices="tripinfo_vehicle_46 emissions_vehicle_46 battery_vehicle_46" vType="human" speedFactor="1.00" vaporized="">
        <emissions CO_abs="0" CO2_abs="0" HC_abs="0" PMx_abs="0" NOx_abs="0" fuel_abs="0" electricity_abs="79.010853"/>
    </tripinfo>
    <tripinfo id="vehicle_5" depart="42.00" departLane="road0_0" departPos="4.10" departPosLat="0.00" departSpeed="0.36" departDelay="19.20" arrival="60.40" arrivalLane="-road3_0" arrivalPos="19.96" arrivalPosLat="0.00" arrivalSpeed="11.38" duration="18.40" routeLength="122.77" waitingTime="0.00" waitingCount="0" stopTime="0.00" timeLoss="5.91" rerouteNo="0" devices="tripinfo_vehicle_5 emissions_vehicle_5 battery_vehicle_5" vType="human" speedFactor="0.83" vaporized="">
        <emissions CO_abs="0" CO2_abs="0" HC_abs="0" PMx_abs="0" NOx_abs="0" fuel_abs="0" electricity_abs="53.197381"/>
    </tripinfo>
    <tripinfo id="vehicle_59" depart="30.00" departLane="road0_0" departPos="4.10" departPosLat="0.00" departSpeed="1.19" departDelay="16.80" arrival="60.80" arrivalLane="-road2_0" arrivalPos="19.96" arrivalPosLat="0.00" arrivalSpeed="11.43" duration="30.80" routeLength="206.37" waitingTime="0.00" waitingCount="0" stopTime="0.00" timeLoss="14.04" rerouteNo="0" devices="tripinfo_vehicle_59 emissions_vehicle_59 battery_vehicle_59" vType="human" speedFactor="0.97" vaporized="">
        <emissions CO_abs="0" CO2_abs="0" HC_abs="0" PMx_abs="0" NOx_abs="0" fuel_abs="0" electricity_abs="67.897926"/>
    </tripinfo>
    <tripinfo id="vehicle_78" depart="21.20" departLane="road1_0" departPos="4.10" departPosLat="0.00" departSpeed="2.03" departDelay="13.60" arrival="62.40" arrivalLane="-road3_0" arrivalPos="19.96" arrivalPosLat="0.00" arrivalSpeed="10.58" duration="41.20" routeLength="206.37" waitingTime="12.40" waitingCount="1" stopTime="0.00" timeLoss="25.06" rerouteNo="1" devices="tripinfo_vehicle_78 routing_vehicle_78 emissions_vehicle_78 battery_vehicle_78" vType="human" speedFactor="1.01" vaporized="">
        <emissions CO_abs="0" CO2_abs="0" HC_abs="0" PMx_abs="0" NOx_abs="0" fuel_abs="0" electricity_abs="66.095007"/>
    </tripinfo>
    <tripinfo id="vehicle_51" depart="26.40" departLane="road2_0" departPos="4.10" departPosLat="0.00" departSpeed="2.79" departDelay="12.00" arrival="62.80" arrivalLane="-road0_0" arrivalPos="19.96" arrivalPosLat="0.00" arrivalSpeed="12.78" duration="36.40" routeLength="206.37" waitingTime="10.00" waitingCount="1" stopTime="0.00" timeLoss="20.35" rerouteNo="1" devices="tripinfo_vehicle_51 routing_vehicle_51 emissions_vehicle_51 battery_vehicle_51" vType="human" speedFactor="1.17" vaporized="">
        <emissions CO_abs="0" CO2_abs="0" HC_abs="0" PMx_abs="0" NOx_abs="0" fuel_abs="0" electricity_abs="85.123737"/>
    </tripinfo>
    <tripinfo id="vehicle_7" depart="20.80" departLane="road3_0" departPos="4.10" departPosLat="0.00" departSpeed="2.50" departDelay="11.20" arrival="64.80" arrivalLane="-road2_0" arrivalPos="19.96" arrivalPosLat="0.00" arrivalSpeed="11.75" duration="44.00" routeLength="122.77" waitingTime="22.80" waitingCount="1" stopTime="0.00" timeLoss="32.27" rerouteNo="1" devices="tripinfo_vehicle_7 routing_vehicle_7 emissions_vehicle_7 battery_vehicle_7" vType="human" speedFactor="0.89" vaporized="">
        <emissions CO_abs="0" CO2_abs="0" HC_abs="0" PMx_abs="0" NOx_abs="0" fuel_abs="0" electricity_abs="55.635804"/>
    </tripinfo>
    <tripinfo id="vehicle_35" depart="28.40" departLane="road2_0" departPos="4.10" departPosLat="0.00" departSpeed="3.35" departDelay="4.00" arrival="65.60" arrivalLane="-road0_0" arrivalPos="19.96" arrivalPosLat="0.00" arrivalSpeed="11.96" duration="37.20" routeLength="206.37" waitingTime="9.20" waitingCount="1" stopTime="0.00" timeLoss="21.04" rerouteNo="1" devices="tripinfo_vehicle_35 routing_vehicle_35 emissions_vehicle_35 battery_vehicle_35" vType="human" speedFactor="1.02" vaporized="">
        <emissions CO_abs="0" CO2_abs="0" HC_abs="0" PMx_abs="0" NOx_abs="0" fuel_abs="0" electricity_abs="73.782568"/>
    </tripinfo>
    <tripinfo id="vehicle_19" depart="18.40" departLane="road1_0" departPos="4.10" departPosLat="0.00" departSpeed="1.16" departDelay="10.80" arrival="66.40" arrivalLane="-road2_0" arrivalPos="19.96" arrivalPosLat="0.00" arrivalSpeed="12.55" duration="48.00" routeLength="289.97" waitingTime="14.00" waitingCount="1" stopTime="0.00" timeLoss="25.76" rerouteNo="1" devices="tripinfo_vehicle_19 routing_vehicle_19 emissions_vehicle_19 battery_vehicle_19" vType="human" speedFactor="1.16" vaporized="">
        <emissions CO_abs="0" CO2_abs="0" HC_abs="0" PMx_abs="0" NOx_abs="0" fuel_abs="0" electricity_abs="102.618658"/>
    </tripinfo>