<?xml version="1.0" encoding="UTF-8"?>

<!-- generated on 2025-08-10 10:50:52 by Eclipse SUMO sumo Version v1_20_0+0085-e155ab8699b
<configuration xmlns:xsi="http://www.w3.org/2001/XMLSchema-instance" xsi:noNamespaceSchemaLocation="http://sumo.dlr.de/xsd/sumoConfiguration.xsd">

    <input>
        <net-file value="../networks/roundabout.net.xml"/>
        <route-files value="../networks/routes_EIDM.rou.xml"/>
    </input>

    <output>
        <output-prefix value="127-"/>
        <battery-output.precision value="4"/>
        <tripinfo-output value="../networks/output_data/output_eidm/tripinfo/tripinfo-output.xml"/>
        <collision-output value="../networks/output_data/output_eidm/collision/collision-output.xml"/>
    </output>

    <time>
        <begin value="0"/>
        <step-length value="0.4"/>
    </time>

    <processing>
        <step-method.ballistic value="true"/>
        <lateral-resolution value="3.2"/>
        <collision.action value="warn"/>
        <collision.check-junctions value="True"/>
        <collision.mingap-factor value="0"/>
        <time-to-teleport value="-1"/>
        <random-depart-offset value="5"/>
    </processing>

    <report>
        <no-warnings value="True"/>
        <no-step-log value="True"/>
    </report>

    <emissions>
        <device.emissions.probability value="1"/>
    </emissions>

    <battery>
        <device.battery.probability value="1"/>
    </battery>

    <traci_server>
        <remote-port value="36861"/>
    </traci_server>

    <gui_only>
        <quit-on-end value="True"/>
        <start value="True"/>
        <delay value="0"/>
    </gui_only>

</configuration>
-->

<tripinfos xmlns:xsi="http://www.w3.org/2001/XMLSchema-instance" xsi:noNamespaceSchemaLocation="http://sumo.dlr.de/xsd/tripinfo_file.xsd">
    <tripinfo id="vehicle_17" depart="0.80" departLane="road2_0" departPos="4.10" departPosLat="0.00" departSpeed="6.01" departDelay="0.00" arrival="16.00" arrivalLane="-road1_0" arrivalPos="19.96" arrivalPosLat="0.00" arrivalSpeed="12.87" duration="15.20" routeLength="122.77" waitingTime="0.00" waitingCount="0" stopTime="0.00" timeLoss="4.20" rerouteNo="1" devices="tripinfo_vehicle_17 routing_vehicle_17 emissions_vehicle_17 battery_vehicle_17" vType="human" speedFactor="0.94" vaporized="">
        <emissions CO_abs="0" CO2_abs="0" HC_abs="0" PMx_abs="0" NOx_abs="0" fuel_abs="0" electricity_abs="57.959279"/>
    </tripinfo>
    <tripinfo id="vehicle_75" depart="2.80" departLane="road1_0" departPos="4.10" departPosLat="0.00" departSpeed="7.52" departDelay="0.00" arrival="17.60" arrivalLane="-road0_0" arrivalPos="19.96" arrivalPosLat="0.00" arrivalSpeed="12.58" duration="14.80" routeLength="122.77" waitingTime="0.00" waitingCount="0" stopTime="0.00" timeLoss="4.56" rerouteNo="1" devices="tripinfo_vehicle_75 routing_vehicle_75 emissions_vehicle_75 battery_vehicle_75" vType="human" speedFactor="0.98" vaporized="">
        <emissions CO_abs="0" CO2_abs="0" HC_abs="0" PMx_abs="0" NOx_abs="0" fuel_abs="0" electricity_abs="50.864506"/>
    </tripinfo>
    <tripinfo id="vehicle_36" depart="3.20" departLane="road2_0" departPos="4.10" departPosLat="0.00" departSpeed="2.61" departDelay="1.60" arrival="19.60" arrivalLane="-road1_0" arrivalPos="19.96" arrivalPosLat="0.00" arrivalSpeed="12.05" duration="16.40" routeLength="122.77" waitingTime="0.00" waitingCount="0" stopTime="0.00" timeLoss="5.79" rerouteNo="1" devices="tripinfo_vehicle_36 routing_vehicle_36 emissions_vehicle_36 battery_vehicle_36" vType="human" speedFactor="0.97" vaporized="">
        <emissions CO_abs="0" CO2_abs="0" HC_abs="0" PMx_abs="0" NOx_abs="0" fuel_abs="0" electricity_abs="59.116697"/>
    </tripinfo>
    <tripinfo id="vehicle_43" depart="4.40" departLane="road3_0" departPos="4.10" departPosLat="0.00" departSpeed="3.70" departDelay="0.40" arrival="20.00" arrivalLane="-road2_0" arrivalPos="19.96" arrivalPosLat="0.00" arrivalSpeed="12.77" duration="15.60" routeLength="122.77" waitingTime="0.00" waitingCount="0" stopTime="0.00" timeLoss="5.05" rerouteNo="1" devices="tripinfo_vehicle_43 routing_vehicle_43 emissions_vehicle_43 battery_vehicle_43" vType="human" speedFactor="1.04" vaporized="">
        <emissions CO_abs="0" CO2_abs="0" HC_abs="0" PMx_abs="0" NOx_abs="0" fuel_abs="0" electricity_abs="64.615059"/>
    </tripinfo>
    <tripinfo id="vehicle_35" depart="3.60" departLane="road1_0" departPos="4.10" departPosLat="0.00" departSpeed="3.67" departDelay="0.00" arrival="20.40" arrivalLane="-road0_0" arrivalPos="19.96" arrivalPosLat="0.00" arrivalSpeed="13.52" duration="16.80" routeLength="122.77" waitingTime="0.00" waitingCount="0" stopTime="0.00" timeLoss="6.24" rerouteNo="1" devices="tripinfo_vehicle_35 routing_vehicle_35 emissions_vehicle_35 battery_vehicle_35" vType="human" speedFactor="1.02" vaporized="">
        <emissions CO_abs="0" CO2_abs="0" HC_abs="0" PMx_abs="0" NOx_abs="0" fuel_abs="0" electricity_abs="67.508702"/>
    </tripinfo>
    <tripinfo id="vehicle_26" depart="3.20" departLane="road0_0" departPos="4.10" departPosLat="0.00" departSpeed="2.30" departDelay="2.00" arrival="20.80" arrivalLane="-road3_0" arrivalPos="19.96" arrivalPosLat="0.00" arrivalSpeed="11.04" duration="17.60" routeLength="122.77" waitingTime="0.00" waitingCount="0" stopTime="0.00" timeLoss="6.23" rerouteNo="0" devices="tripinfo_vehicle_26 emissions_vehicle_26 battery_vehicle_26" vType="human" speedFactor="0.92" vaporized="">
        <emissions CO_abs="0" CO2_abs="0" HC_abs="0" PMx_abs="0" NOx_abs="0" fuel_abs="0" electricity_abs="52.294071"/>
    </tripinfo>
    <tripinfo id="vehicle_55" depart="0.80" departLane="road0_0" departPos="4.10" departPosLat="0.00" departSpeed="8.17" departDelay="0.00" arrival="22.80" arrivalLane="-road2_0" arrivalPos="19.96" arrivalPosLat="0.00" arrivalSpeed="11.84" duration="22.00" routeLength="206.37" waitingTime="0.00" waitingCount="0" stopTime="0.00" timeLoss="5.86" rerouteNo="0" devices="tripinfo_vehicle_55 emissions_vehicle_55 battery_vehicle_55" vType="human" speedFactor="1.00" vaporized="">
        <emissions CO_abs="0" CO2_abs="0" HC_abs="0" PMx_abs="0" NOx_abs="0" fuel_abs="0" electricity_abs="61.842745"/>
    </tripinfo>
    <tripinfo id="vehicle_48" depart="5.20" departLane="road0_0" departPos="4.10" departPosLat="0.00" departSpeed="1.87" departDelay="2.40" arrival="23.60" arrivalLane="-road3_0" arrivalPos="19.96" arrivalPosLat="0.00" arrivalSpeed="12.05" duration="18.40" routeLength="122.77" waitingTime="0.00" waitingCount="0" stopTime="0.00" timeLoss="6.55" rerouteNo="0" devices="tripinfo_vehicle_48 emissions_vehicle_48 battery_vehicle_48" vType="human" speedFactor="0.88" vaporized="">
        <emissions CO_abs="0" CO2_abs="0" HC_abs="0" PMx_abs="0" NOx_abs="0" fuel_abs="0" electricity_abs="57.033398"/>
    </tripinfo>
    <tripinfo id="vehicle_8" depart="3.20" departLane="road3_0" departPos="4.10" departPosLat="0.00" departSpeed="3.03" departDelay="0.00" arrival="26.40" arrivalLane="-road1_0" arrivalPos="19.96" arrivalPosLat="0.00" arrivalSpeed="12.08" duration="23.20" routeLength="206.37" waitingTime="0.00" waitingCount="0" stopTime="0.00" timeLoss="5.58" rerouteNo="1" devices="tripinfo_vehicle_8 routing_vehicle_8 emissions_vehicle_8 battery_vehicle_8" vType="human" speedFactor="0.94" vaporized="">
        <emissions CO_abs="0" CO2_abs="0" HC_abs="0" PMx_abs="0" NOx_abs="0" fuel_abs="0" electricity_abs="76.761208"/>
    </tripinfo>
    <tripinfo id="vehicle_28" depart="8.40" departLane="road3_0" departPos="4.10" departPosLat="0.00" departSpeed="2.42" departDelay="0.00" arrival="27.60" arrivalLane="-road2_0" arrivalPos="19.96" arrivalPosLat="0.00" arrivalSpeed="12.12" duration="19.20" routeLength="122.77" waitingTime="0.00" waitingCount="0" stopTime="0.00" timeLoss="9.17" rerouteNo="1" devices="tripinfo_vehicle_28 routing_vehicle_28 emissions_vehicle_28 battery_vehicle_28" vType="human" speedFactor="1.13" vaporized="">
        <emissions CO_abs="0" CO2_abs="0" HC_abs="0" PMx_abs="0" NOx_abs="0" fuel_abs="0" electricity_abs="61.027751"/>
    </tripinfo>
    <tripinfo id="vehicle_76" depart="5.20" departLane="road2_0" departPos="4.10" departPosLat="0.00" departSpeed="2.34" departDelay="2.80" arrival="30.00" arrivalLane="-road0_0" arrivalPos="19.96" arrivalPosLat="0.00" arrivalSpeed="12.11" duration="24.80" routeLength="206.37" waitingTime="0.00" waitingCount="0" stopTime="0.00" timeLoss="8.28" rerouteNo="1" devices="tripinfo_vehicle_76 routing_vehicle_76 emissions_vehicle_76 battery_vehicle_76" vType="human" speedFactor="1.03" vaporized="">
        <emissions CO_abs="0" CO2_abs="0" HC_abs="0" PMx_abs="0" NOx_abs="0" fuel_abs="0" electricity_abs="77.262474"/>
    </tripinfo>
    <tripinfo id="vehicle_47" depart="5.60" departLane="road1_0" departPos="4.10" departPosLat="0.00" departSpeed="2.70" departDelay="0.00" arrival="30.80" arrivalLane="-road3_0" arrivalPos="19.96" arrivalPosLat="0.00" arrivalSpeed="11.66" duration="25.20" routeLength="206.37" waitingTime="0.00" waitingCount="0" stopTime="0.00" timeLoss="7.13" rerouteNo="1" devices="tripinfo_vehicle_47 routing_vehicle_47 emissions_vehicle_47 battery_vehicle_47" vType="human" speedFactor="0.90" vaporized="">
        <emissions CO_abs="0" CO2_abs="0" HC_abs="0" PMx_abs="0" NOx_abs="0" fuel_abs="0" electricity_abs="71.906328"/>
    </tripinfo>
    <tripinfo id="vehicle_57" depart="1.60" departLane="road0_0" departPos="4.10" departPosLat="0.00" departSpeed="4.19" departDelay="0.80" arrival="32.40" arrivalLane="-road1_0" arrivalPos="19.96" arrivalPosLat="0.00" arrivalSpeed="12.55" duration="30.80" routeLength="289.97" waitingTime="0.00" waitingCount="0" stopTime="0.00" timeLoss="8.48" rerouteNo="0" devices="tripinfo_vehicle_57 emissions_vehicle_57 battery_vehicle_57" vType="human" speedFactor="1.14" vaporized="">
        <emissions CO_abs="0" CO2_abs="0" HC_abs="0" PMx_abs="0" NOx_abs="0" fuel_abs="0" electricity_abs="98.606647"/>
    </tripinfo>
    <tripinfo id="vehicle_33" depart="2.00" departLane="road2_0" departPos="4.10" departPosLat="0.00" departSpeed="5.15" departDelay="1.20" arrival="32.80" arrivalLane="-road3_0" arrivalPos="19.96" arrivalPosLat="0.00" arrivalSpeed="12.92" duration="30.80" routeLength="289.97" waitingTime="0.00" waitingCount="0" stopTime="0.00" timeLoss="8.75" rerouteNo="1" devices="tripinfo_vehicle_33 routing_vehicle_33 emissions_vehicle_33 battery_vehicle_33" vType="human" speedFactor="1.17" vaporized="">
        <emissions CO_abs="0" CO2_abs="0" HC_abs="0" PMx_abs="0" NOx_abs="0" fuel_abs="0" electricity_abs="98.494110"/>
    </tripinfo>
    <tripinfo id="vehicle_58" depart="10.00" departLane="road0_0" departPos="4.10" departPosLat="0.00" departSpeed="3.47" departDelay="6.40" arrival="33.60" arrivalLane="-road2_0" arrivalPos="19.96" arrivalPosLat="0.00" arrivalSpeed="12.55" duration="23.60" routeLength="206.37" waitingTime="0.00" waitingCount="0" stopTime="0.00" timeLoss="7.17" rerouteNo="0" devices="tripinfo_vehicle_58 emissions_vehicle_58 battery_vehicle_58" vType="human" speedFactor="1.02" vaporized="">
        <emissions CO_abs="0" CO2_abs="0" HC_abs="0" PMx_abs="0" NOx_abs="0" fuel_abs="0" electricity_abs="81.090240"/>
    </tripinfo>
    <tripinfo id="rl_0" depart="7.60" departLane="road1_0" departPos="4.10" departPosLat="0.00" departSpeed="1.09" departDelay="1.20" arrival="34.80" arrivalLane="-road3_0" arrivalPos="19.96" arrivalPosLat="0.00" arrivalSpeed="8.48" duration="27.20" routeLength="206.37" waitingTime="0.40" waitingCount="1" stopTime="0.00" timeLoss="10.84" rerouteNo="1" devices="tripinfo_rl_0 routing_rl_0 emissions_rl_0 battery_rl_0 driverstaterl_0" vType="rlAnget" speedFactor="1.03" vaporized="">
        <emissions CO_abs="0" CO2_abs="0" HC_abs="0" PMx_abs="0" NOx_abs="0" fuel_abs="0" electricity_abs="59.159502"/>
    </tripinfo>
    <tripinfo id="vehicle_11" depart="6.40" departLane="road3_0" departPos="4.10" departPosLat="0.00" departSpeed="3.06" departDelay="0.80" arrival="35.20" arrivalLane="-road1_0" arrivalPos="19.96" arrivalPosLat="0.00" arrivalSpeed="13.12" duration="28.80" routeLength="206.37" waitingTime="0.80" waitingCount="1" stopTime="0.00" timeLoss="12.19" rerouteNo="1" devices="tripinfo_vehicle_11 routing_vehicle_11 emissions_vehicle_11 battery_vehicle_11" vType="human" speedFactor="1.03" vaporized="">
        <emissions CO_abs="0" CO2_abs="0" HC_abs="0" PMx_abs="0" NOx_abs="0" fuel_abs="0" electricity_abs="81.436196"/>
    </tripinfo>
    <tripinfo id="vehicle_67" depart="9.60" departLane="road2_0" departPos="4.10" departPosLat="0.00" departSpeed="3.21" departDelay="4.80" arrival="36.80" arrivalLane="-road0_0" arrivalPos="19.96" arrivalPosLat="0.00" arrivalSpeed="11.70" duration="27.20" routeLength="206.37" waitingTime="0.00" waitingCount="0" stopTime="0.00" timeLoss="9.25" rerouteNo="1" devices="tripinfo_vehicle_67 routing_vehicle_67 emissions_vehicle_67 battery_vehicle_67" vType="human" speedFactor="0.91" vaporized="">
        <emissions CO_abs="0" CO2_abs="0" HC_abs="0" PMx_abs="0" NOx_abs="0" fuel_abs="0" electricity_abs="70.809984"/>
    </tripinfo>
    <tripinfo id="vehicle_27" depart="10.80" departLane="road1_0" departPos="4.10" departPosLat="0.00" departSpeed="3.59" departDelay="2.40" arrival="37.60" arrivalLane="-road3_0" arrivalPos="19.96" arrivalPosLat="0.00" arrivalSpeed="11.51" duration="26.80" routeLength="206.37" waitingTime="0.00" waitingCount="0" stopTime="0.00" timeLoss="9.66" rerouteNo="1" devices="tripinfo_vehicle_27 routing_vehicle_27 emissions_vehicle_27 battery_vehicle_27" vType="human" speedFactor="0.95" vaporized="">
        <emissions CO_abs="0" CO2_abs="0" HC_abs="0" PMx_abs="0" NOx_abs="0" fuel_abs="0" electricity_abs="66.705429"/>
    </tripinfo>
    <tripinfo id="vehicle_73" depart="7.60" departLane="road0_0" departPos="4.10" departPosLat="0.00" departSpeed="1.92" departDelay="4.80" arrival="38.40" arrivalLane="-road1_0" arrivalPos="19.96" arrivalPosLat="0.00" arrivalSpeed="12.25" duration="30.80" routeLength="289.97" waitingTime="0.00" waitingCount="0" stopTime="0.00" timeLoss="8.29" rerouteNo="0" devices="tripinfo_vehicle_73 emissions_vehicle_73 battery_vehicle_73" vType="human" speedFactor="1.06" vaporized="">
        <emissions CO_abs="0" CO2_abs="0" HC_abs="0" PMx_abs="0" NOx_abs="0" fuel_abs="0" electricity_abs="99.718754"/>
    </tripinfo>
    <tripinfo id="vehicle_74" depart="18.00" departLane="road3_0" departPos="4.10" departPosLat="0.00" departSpeed="2.48" departDelay="7.60" arrival="39.20" arrivalLane="-road2_0" arrivalPos="19.96" arrivalPosLat="0.00" arrivalSpeed="11.20" duration="21.20" routeLength="122.77" waitingTime="1.60" waitingCount="1" stopTime="0.00" timeLoss="10.81" rerouteNo="1" devices="tripinfo_vehicle_74 routing_vehicle_74 emissions_vehicle_74 battery_vehicle_74" vType="human" speedFactor="0.96" vaporized="">
        <emissions CO_abs="0" CO2_abs="0" HC_abs="0" PMx_abs="0" NOx_abs="0" fuel_abs="0" electricity_abs="54.458150"/>
    </tripinfo>
    <tripinfo id="vehicle_51" depart="7.20" departLane="road2_0" departPos="4.10" departPosLat="0.00" departSpeed="2.01" departDelay="3.20" arrival="39.60" arrivalLane="-road3_0" arrivalPos="19.96" arrivalPosLat="0.00" arrivalSpeed="12.48" duration="32.40" routeLength="289.97" waitingTime="0.00" waitingCount="0" stopTime="0.00" timeLoss="10.22" rerouteNo="1" devices="tripinfo_vehicle_51 routing_vehicle_51 emissions_vehicle_51 battery_vehicle_51" vType="human" speedFactor="1.17" vaporized="">
        <emissions CO_abs="0" CO2_abs="0" HC_abs="0" PMx_abs="0" NOx_abs="0" fuel_abs="0" electricity_abs="105.671917"/>
    </tripinfo>
    <tripinfo id="vehicle_5" depart="11.60" departLane="road2_0" departPos="4.10" departPosLat="0.00" departSpeed="1.08" departDelay="6.40" arrival="40.00" arrivalLane="-road0_0" arrivalPos="19.96" arrivalPosLat="0.00" arrivalSpeed="10.92" duration="28.40" routeLength="206.37" waitingTime="0.00" waitingCount="0" stopTime="0.00" timeLoss="8.80" rerouteNo="1" devices="tripinfo_vehicle_5 routing_vehicle_5 emissions_vehicle_5 battery_vehicle_5" vType="human" speedFactor="0.83" vaporized="">
        <emissions CO_abs="0" CO2_abs="0" HC_abs="0" PMx_abs="0" NOx_abs="0" fuel_abs="0" electricity_abs="64.777775"/>
    </tripinfo>
    <tripinfo id="vehicle_71" depart="10.80" departLane="road3_0" departPos="4.10" departPosLat="0.00" departSpeed="0.11" departDelay="2.00" arrival="40.80" arrivalLane="-road1_0" arrivalPos="19.96" arrivalPosLat="0.00" arrivalSpeed="11.50" duration="30.00" routeLength="206.37" waitingTime="0.00" waitingCount="0" stopTime="0.00" timeLoss="13.18" rerouteNo="1" devices="tripinfo_vehicle_71 routing_vehicle_71 emissions_vehicle_71 battery_vehicle_71" vType="human" speedFactor="0.97" vaporized="">
        <emissions CO_abs="0" CO2_abs="0" HC_abs="0" PMx_abs="0" NOx_abs="0" fuel_abs="0" electricity_abs="68.991957"/>
    </tripinfo>
    <tripinfo id="vehicle_66" depart="20.40" departLane="road3_0" departPos="4.10" departPosLat="0.00" departSpeed="2.12" departDelay="6.80" arrival="42.40" arrivalLane="-road2_0" arrivalPos="19.96" arrivalPosLat="0.00" arrivalSpeed="11.86" duration="22.00" routeLength="122.77" waitingTime="1.20" waitingCount="1" stopTime="0.00" timeLoss="10.62" rerouteNo="1" devices="tripinfo_vehicle_66 routing_vehicle_66 emissions_vehicle_66 battery_vehicle_66" vType="human" speedFactor="0.91" vaporized="">
        <emissions CO_abs="0" CO2_abs="0" HC_abs="0" PMx_abs="0" NOx_abs="0" fuel_abs="0" electricity_abs="57.204430"/>
    </tripinfo>
    <tripinfo id="vehicle_62" depart="26.40" departLane="road3_0" departPos="4.10" departPosLat="0.00" departSpeed="1.40" departDelay="12.00" arrival="44.80" arrivalLane="-road2_0" arrivalPos="19.96" arrivalPosLat="0.00" arrivalSpeed="12.36" duration="18.40" routeLength="122.77" waitingTime="0.00" waitingCount="0" stopTime="0.00" timeLoss="8.01" rerouteNo="1" devices="tripinfo_vehicle_62 routing_vehicle_62 emissions_vehicle_62 battery_vehicle_62" vType="human" speedFactor="1.02" vaporized="">
        <emissions CO_abs="0" CO2_abs="0" HC_abs="0" PMx_abs="0" NOx_abs="0" fuel_abs="0" electricity_abs="60.815025"/>
    </tripinfo>
    <tripinfo id="vehicle_46" depart="15.20" departLane="road2_0" departPos="4.10" departPosLat="0.00" departSpeed="2.98" departDelay="10.00" arrival="45.20" arrivalLane="-road1_0" arrivalPos="19.96" arrivalPosLat="0.00" arrivalSpeed="11.95" duration="30.00" routeLength="122.77" waitingTime="11.60" waitingCount="1" stopTime="0.00" timeLoss="19.58" rerouteNo="1" devices="tripinfo_vehicle_46 routing_vehicle_46 emissions_vehicle_46 battery_vehicle_46" vType="human" speedFactor="1.00" vaporized="">
        <emissions CO_abs="0" CO2_abs="0" HC_abs="0" PMx_abs="0" NOx_abs="0" fuel_abs="0" electricity_abs="59.822527"/>
    </tripinfo>
    <tripinfo id="vehicle_72" depart="14.00" departLane="road1_0" departPos="4.10" departPosLat="0.00" departSpeed="1.09" departDelay="4.40" arrival="47.60" arrivalLane="-road0_0" arrivalPos="19.96" arrivalPosLat="0.00" arrivalSpeed="12.36" duration="33.60" routeLength="122.77" waitingTime="12.40" waitingCount="1" stopTime="0.00" timeLoss="22.69" rerouteNo="1" devices="tripinfo_vehicle_72 routing_vehicle_72 emissions_vehicle_72 battery_vehicle_72" vType="human" speedFactor="0.94" vaporized="">
        <emissions CO_abs="0" CO2_abs="0" HC_abs="0" PMx_abs="0" NOx_abs="0" fuel_abs="0" electricity_abs="62.462608"/>
    </tripinfo>
    <tripinfo id="vehicle_18" depart="17.20" departLane="road2_0" departPos="4.10" departPosLat="0.00" departSpeed="1.81" departDelay="11.20" arrival="48.40" arrivalLane="-road1_0" arrivalPos="19.96" arrivalPosLat="0.00" arrivalSpeed="12.09" duration="31.20" routeLength="122.77" waitingTime="10.80" waitingCount="1" stopTime="0.00" timeLoss="19.80" rerouteNo="1" devices="tripinfo_vehicle_18 routing_vehicle_18 emissions_vehicle_18 battery_vehicle_18" vType="human" speedFactor="0.94" vaporized="">
        <emissions CO_abs="0" CO2_abs="0" HC_abs="0" PMx_abs="0" NOx_abs="0" fuel_abs="0" electricity_abs="59.195784"/>
    </tripinfo>
    <tripinfo id="vehicle_54" depart="19.60" departLane="road2_0" departPos="4.10" departPosLat="0.00" departSpeed="1.76" departDelay="12.00" arrival="50.40" arrivalLane="-road1_0" arrivalPos="19.96" arrivalPosLat="0.00" arrivalSpeed="12.84" duration="30.80" routeLength="122.77" waitingTime="10.00" waitingCount="1" stopTime="0.00" timeLoss="20.32" rerouteNo="1" devices="tripinfo_vehicle_54 routing_vehicle_54 emissions_vehicle_54 battery_vehicle_54" vType="human" speedFactor="1.00" vaporized="">
        <emissions CO_abs="0" CO2_abs="0" HC_abs="0" PMx_abs="0" NOx_abs="0" fuel_abs="0" electricity_abs="63.385043"/>
    </tripinfo>
    <tripinfo id="vehicle_64" depart="14.40" departLane="road0_0" departPos="4.10" departPosLat="0.00" departSpeed="0.87" departDelay="8.40" arrival="51.20" arrivalLane="-road2_0" arrivalPos="19.96" arrivalPosLat="0.00" arrivalSpeed="12.13" duration="36.80" routeLength="206.37" waitingTime="4.80" waitingCount="1" stopTime="0.00" timeLoss="19.38" rerouteNo="0" devices="tripinfo_vehicle_64 emissions_vehicle_64 battery_vehicle_64" vType="human" speedFactor="0.94" vaporized="">
        <emissions CO_abs="0" CO2_abs="0" HC_abs="0" PMx_abs="0" NOx_abs="0" fuel_abs="0" electricity_abs="72.272889"/>
    </tripinfo>
    <tripinfo id="vehicle_40" depart="34.40" departLane="road1_0" departPos="4.10" departPosLat="0.00" departSpeed="0.97" departDelay="21.20" arrival="51.60" arrivalLane="-road0_0" arrivalPos="19.96" arrivalPosLat="0.00" arrivalSpeed="11.54" duration="17.20" routeLength="122.77" waitingTime="0.00" waitingCount="0" stopTime="0.00" timeLoss="7.04" rerouteNo="1" devices="tripinfo_vehicle_40 routing_vehicle_40 emissions_vehicle_40 battery_vehicle_40" vType="human" speedFactor="1.03" vaporized="">
        <emissions CO_abs="0" CO2_abs="0" HC_abs="0" PMx_abs="0" NOx_abs="0" fuel_abs="0" electricity_abs="57.419268"/>
    </tripinfo>
    <tripinfo id="vehicle_53" depart="36.40" departLane="road0_0" departPos="4.10" departPosLat="0.00" departSpeed="0.13" departDelay="22.00" arrival="52.40" arrivalLane="-road3_0" arrivalPos="19.96" arrivalPosLat="0.00" arrivalSpeed="10.94" duration="16.00" routeLength="122.77" waitingTime="0.00" waitingCount="0" stopTime="0.00" timeLoss="5.73" rerouteNo="0" devices="tripinfo_vehicle_53 emissions_vehicle_53 battery_vehicle_53" vType="human" speedFactor="1.10" vaporized="">
        <emissions CO_abs="0" CO2_abs="0" HC_abs="0" PMx_abs="0" NOx_abs="0" fuel_abs="0" electricity_abs="55.766282"/>
    </tripinfo>
    <tripinfo id="vehicle_25" depart="15.60" departLane="road3_0" departPos="4.10" departPosLat="0.00" departSpeed="1.70" departDelay="6.00" arrival="54.40" arrivalLane="-road0_0" arrivalPos="19.96" arrivalPosLat="0.00" arrivalSpeed="11.67" duration="38.80" routeLength="289.97" waitingTime="2.40" waitingCount="1" stopTime="0.00" timeLoss="13.00" rerouteNo="1" devices="tripinfo_vehicle_25 routing_vehicle_25 emissions_vehicle_25 battery_vehicle_25" vType="human" speedFactor="0.87" vaporized="">
        <emissions CO_abs="0" CO2_abs="0" HC_abs="0" PMx_abs="0" NOx_abs="0" fuel_abs="0" electricity_abs="86.159100"/>
    </tripinfo>
    <tripinfo id="vehicle_23" depart="29.20" departLane="road3_0" departPos="4.10" departPosLat="0.00" departSpeed="1.87" departDelay="13.60" arrival="56.40" arrivalLane="-road1_0" arrivalPos="19.96" arrivalPosLat="0.00" arrivalSpeed="11.26" duration="27.20" routeLength="206.37" waitingTime="0.00" waitingCount="0" stopTime="0.00" timeLoss="8.82" rerouteNo="1" devices="tripinfo_vehicle_23 routing_vehicle_23 emissions_vehicle_23 battery_vehicle_23" vType="human" speedFactor="0.89" vaporized="">
        <emissions CO_abs="0" CO2_abs="0" HC_abs="0" PMx_abs="0" NOx_abs="0" fuel_abs="0" electricity_abs="67.334209"/>
    </tripinfo>
    <tripinfo id="vehicle_39" depart="37.20" departLane="road1_0" departPos="4.10" departPosLat="0.00" departSpeed="3.00" departDelay="22.80" arrival="56.40" arrivalLane="-road0_0" arrivalPos="19.96" arrivalPosLat="0.00" arrivalSpeed="12.07" duration="19.20" routeLength="122.77" waitingTime="0.00" waitingCount="0" stopTime="0.00" timeLoss="7.84" rerouteNo="1" devices="tripinfo_vehicle_39 routing_vehicle_39 emissions_vehicle_39 battery_vehicle_39" vType="human" speedFactor="0.90" vaporized="">
        <emissions CO_abs="0" CO2_abs="0" HC_abs="0" PMx_abs="0" NOx_abs="0" fuel_abs="0" electricity_abs="53.854251"/>
    </tripinfo>
    <tripinfo id="vehicle_69" depart="32.00" departLane="road0_0" departPos="4.10" departPosLat="0.00" departSpeed="2.35" departDelay="18.80" arrival="58.00" arrivalLane="-road2_0" arrivalPos="19.96" arrivalPosLat="0.00" arrivalSpeed="12.19" duration="26.00" routeLength="206.37" waitingTime="0.00" waitingCount="0" stopTime="0.00" timeLoss="9.59" rerouteNo="0" devices="tripinfo_vehicle_69 emissions_vehicle_69 battery_vehicle_69" vType="human" speedFactor="1.02" vaporized="">
        <emissions CO_abs="0" CO2_abs="0" HC_abs="0" PMx_abs="0" NOx_abs="0" fuel_abs="0" electricity_abs="75.942792"/>
    </tripinfo>
    <tripinfo id="vehicle_50" depart="12.00" departLane="road0_0" departPos="4.10" departPosLat="0.00" departSpeed="2.89" departDelay="7.60" arrival="59.20" arrivalLane="-road1_0" arrivalPos="19.96" arrivalPosLat="0.00" arrivalSpeed="10.87" duration="47.20" routeLength="289.97" waitingTime="6.40" waitingCount="1" stopTime="0.00" timeLoss="21.07" rerouteNo="0" devices="tripinfo_vehicle_50 emissions_vehicle_50 battery_vehicle_50" vType="human" speedFactor="0.85" vaporized="">
        <emissions CO_abs="0" CO2_abs="0" HC_abs="0" PMx_abs="0" NOx_abs="0" fuel_abs="0" electricity_abs="76.720506"/>
    </tripinfo>
    <tripinfo id="vehicle_41" depart="12.40" departLane="road1_0" departPos="4.10" departPosLat="0.00" departSpeed="4.10" departDelay="4.00" arrival="60.40" arrivalLane="-road2_0" arrivalPos="19.96" arrivalPosLat="0.00" arrivalSpeed="11.37" duration="48.00" routeLength="289.97" waitingTime="13.20" waitingCount="1" stopTime="0.00" timeLoss="24.69" rerouteNo="1" devices="tripinfo_vehicle_41 routing_vehicle_41 emissions_vehicle_41 battery_vehicle_41" vType="human" speedFactor="0.96" vaporized="">
        <emissions CO_abs="0" CO2_abs="0" HC_abs="0" PMx_abs="0" NOx_abs="0" fuel_abs="0" electricity_abs="90.122169"/>
    </tripinfo>
    <tripinfo id="vehicle_3" depart="34.80" departLane="road2_0" departPos="4.10" departPosLat="0.00" departSpeed="1.51" departDelay="26.40" arrival="61.20" arrivalLane="-road0_0" arrivalPos="19.96" arrivalPosLat="0.00" arrivalSpeed="13.60" duration="26.40" routeLength="206.37" waitingTime="0.00" waitingCount="0" stopTime="0.00" timeLoss="10.10" rerouteNo="1" devices="tripinfo_vehicle_3 routing_vehicle_3 emissions_vehicle_3 battery_vehicle_3" vType="human" speedFactor="1.08" vaporized="">
        <emissions CO_abs="0" CO2_abs="0" HC_abs="0" PMx_abs="0" NOx_abs="0" fuel_abs="0" electricity_abs="84.461065"/>
    </tripinfo>
    <tripinfo id="vehicle_68" depart="34.40" departLane="road0_0" departPos="4.10" departPosLat="0.00" departSpeed="2.48" departDelay="20.80" arrival="62.80" arrivalLane="-road2_0" arrivalPos="19.96" arrivalPosLat="0.00" arrivalSpeed="11.58" duration="28.40" routeLength="206.37" waitingTime="0.00" waitingCount="0" stopTime="0.00" timeLoss="12.02" rerouteNo="0" devices="tripinfo_vehicle_68 emissions_vehicle_68 battery_vehicle_68" vType="human" speedFactor="1.04" vaporized="">
        <emissions CO_abs="0" CO2_abs="0" HC_abs="0" PMx_abs="0" NOx_abs="0" fuel_abs="0" electricity_abs="66.976809"/>
    </tripinfo>
    <tripinfo id="vehicle_1" depart="16.80" departLane="road0_0" departPos="4.10" departPosLat="0.00" departSpeed="1.31" departDelay="8.80" arrival="63.60" arrivalLane="-road1_0" arrivalPos="19.96" arrivalPosLat="0.00" arrivalSpeed="11.91" duration="46.80" routeLength="289.97" waitingTime="4.00" waitingCount="1" stopTime="0.00" timeLoss="23.06" rerouteNo="0" devices="tripinfo_vehicle_1 emissions_vehicle_1 battery_vehicle_1" vType="human" speedFactor="0.94" vaporized="">
        <emissions CO_abs="0" CO2_abs="0" HC_abs="0" PMx_abs="0" NOx_abs="0" fuel_abs="0" electricity_abs="88.687777"/>
    </tripinfo>
    <tripinfo id="vehicle_77" depart="16.80" departLane="road1_0" departPos="4.10" departPosLat="0.00" departSpeed="1.16" departDelay="7.20" arrival="64.80" arrivalLane="-road2_0" arrivalPos="19.96" arrivalPosLat="0.00" arrivalSpeed="12.08" duration="48.00" routeLength="289.97" waitingTime="11.60" waitingCount="1" stopTime="0.00" timeLoss="25.35" rerouteNo="1" devices="tripinfo_vehicle_77 routing_vehicle_77 emissions_vehicle_77 battery_vehicle_77" vType="human" speedFactor="0.98" vaporized="">
        <emissions CO_abs="0" CO2_abs="0" HC_abs="0" PMx_abs="0" NOx_abs="0" fuel_abs="0" electricity_abs="95.818348"/>
    </tripinfo>
    <tripinfo id="vehicle_20" depart="33.60" departLane="road3_0" departPos="4.10" departPosLat="0.00" departSpeed="1.33" departDelay="15.60" arrival="65.60" arrivalLane="-road0_0" arrivalPos="19.96" arrivalPosLat="0.00" arrivalSpeed="11.88" duration="32.00" routeLength="289.97" waitingTime="0.00" waitingCount="0" stopTime="0.00" timeLoss="9.51" rerouteNo="1" devices="tripinfo_vehicle_20 routing_vehicle_20 emissions_vehicle_20 battery_vehicle_20" vType="human" speedFactor="1.02" vaporized="">
        <emissions CO_abs="0" CO2_abs="0" HC_abs="0" PMx_abs="0" NOx_abs="0" fuel_abs="0" electricity_abs="96.443614"/>
    </tripinfo>
    <tripinfo id="vehicle_4" depart="26.80" departLane="road0_0" departPos="4.10" departPosLat="0.00" departSpeed="1.03" departDelay="18.40" arrival="66.00" arrivalLane="-road1_0" arrivalPos="19.96" arrivalPosLat="0.00" arrivalSpeed="12.37" duration="39.20" routeLength="289.97" waitingTime="0.00" waitingCount="0" stopTime="0.00" timeLoss="16.81" rerouteNo="0" devices="tripinfo_vehicle_4 emissions_vehicle_4 battery_vehicle_4" vType="human" speedFactor="1.03" vaporized="">