<?xml version="1.0" encoding="UTF-8"?>

<!-- generated on 2025-08-10 10:51:11 by Eclipse SUMO sumo Version v1_20_0+0085-e155ab8699b
<configuration xmlns:xsi="http://www.w3.org/2001/XMLSchema-instance" xsi:noNamespaceSchemaLocation="http://sumo.dlr.de/xsd/sumoConfiguration.xsd">

    <input>
        <net-file value="../networks/roundabout.net.xml"/>
        <route-files value="../networks/routes_EIDM.rou.xml"/>
    </input>

    <output>
        <output-prefix value="143-"/>
        <battery-output.precision value="4"/>
        <tripinfo-output value="../networks/output_data/output_eidm/tripinfo/tripinfo-output.xml"/>
        <collision-output value="../networks/output_data/output_eidm/collision/collision-output.xml"/>
    </output>

    <time>
        <begin value="0"/>
        <step-length value="0.4"/>
    </time>

    <processing>
        <step-method.ballistic value="true"/>
        <lateral-resolution value="3.2"/>
        <collision.action value="warn"/>
        <collision.check-junctions value="True"/>
        <collision.mingap-factor value="0"/>
        <time-to-teleport value="-1"/>
        <random-depart-offset value="5"/>
    </processing>

    <report>
        <no-warnings value="True"/>
        <no-step-log value="True"/>
    </report>

    <emissions>
        <device.emissions.probability value="1"/>
    </emissions>

    <battery>
        <device.battery.probability value="1"/>
    </battery>

    <traci_server>
        <remote-port value="44751"/>
    </traci_server>

    <gui_only>
        <quit-on-end value="True"/>
        <start value="True"/>
        <delay value="0"/>
    </gui_only>

</configuration>
-->

<tripinfos xmlns:xsi="http://www.w3.org/2001/XMLSchema-instance" xsi:noNamespaceSchemaLocation="http://sumo.dlr.de/xsd/tripinfo_file.xsd">
    <tripinfo id="vehicle_65" depart="4.40" departLane="road2_0" departPos="4.10" departPosLat="0.00" departSpeed="2.32" departDelay="0.00" arrival="20.40" arrivalLane="-road1_0" arrivalPos="19.96" arrivalPosLat="0.00" arrivalSpeed="12.04" duration="16.00" routeLength="122.77" waitingTime="0.00" waitingCount="0" stopTime="0.00" timeLoss="4.35" rerouteNo="1" devices="tripinfo_vehicle_65 routing_vehicle_65 emissions_vehicle_65 battery_vehicle_65" vType="human" speedFactor="0.88" vaporized="">
        <emissions CO_abs="0" CO2_abs="0" HC_abs="0" PMx_abs="0" NOx_abs="0" fuel_abs="0" electricity_abs="58.746694"/>
    </tripinfo>
    <tripinfo id="vehicle_78" depart="8.40" departLane="road2_0" departPos="4.10" departPosLat="0.00" departSpeed="5.01" departDelay="0.00" arrival="24.80" arrivalLane="-road1_0" arrivalPos="19.96" arrivalPosLat="0.00" arrivalSpeed="12.30" duration="16.40" routeLength="122.77" waitingTime="0.00" waitingCount="0" stopTime="0.00" timeLoss="5.94" rerouteNo="1" devices="tripinfo_vehicle_78 routing_vehicle_78 emissions_vehicle_78 battery_vehicle_78" vType="human" speedFactor="1.01" vaporized="">
        <emissions CO_abs="0" CO2_abs="0" HC_abs="0" PMx_abs="0" NOx_abs="0" fuel_abs="0" electricity_abs="53.840275"/>
    </tripinfo>
    <tripinfo id="vehicle_39" depart="6.00" departLane="road1_0" departPos="4.10" departPosLat="0.00" departSpeed="3.21" departDelay="2.80" arrival="25.60" arrivalLane="-road0_0" arrivalPos="19.96" arrivalPosLat="0.00" arrivalSpeed="11.70" duration="19.60" routeLength="122.77" waitingTime="0.00" waitingCount="0" stopTime="0.00" timeLoss="8.06" rerouteNo="1" devices="tripinfo_vehicle_39 routing_vehicle_39 emissions_vehicle_39 battery_vehicle_39" vType="human" speedFactor="0.90" vaporized="">
        <emissions CO_abs="0" CO2_abs="0" HC_abs="0" PMx_abs="0" NOx_abs="0" fuel_abs="0" electricity_abs="53.660044"/>
    </tripinfo>
    <tripinfo id="vehicle_38" depart="10.00" departLane="road2_0" departPos="4.10" departPosLat="0.00" departSpeed="3.54" departDelay="0.00" arrival="26.80" arrivalLane="-road1_0" arrivalPos="19.96" arrivalPosLat="0.00" arrivalSpeed="11.82" duration="16.80" routeLength="122.77" waitingTime="0.00" waitingCount="0" stopTime="0.00" timeLoss="6.63" rerouteNo="1" devices="tripinfo_vehicle_38 routing_vehicle_38 emissions_vehicle_38 battery_vehicle_38" vType="human" speedFactor="1.10" vaporized="">
        <emissions CO_abs="0" CO2_abs="0" HC_abs="0" PMx_abs="0" NOx_abs="0" fuel_abs="0" electricity_abs="54.988117"/>
    </tripinfo>
    <tripinfo id="vehicle_49" depart="2.00" departLane="road1_0" departPos="4.10" departPosLat="0.00" departSpeed="5.28" departDelay="1.20" arrival="26.80" arrivalLane="-road3_0" arrivalPos="19.96" arrivalPosLat="0.00" arrivalSpeed="10.50" duration="24.80" routeLength="206.37" waitingTime="0.00" waitingCount="0" stopTime="0.00" timeLoss="5.68" rerouteNo="1" devices="tripinfo_vehicle_49 routing_vehicle_49 emissions_vehicle_49 battery_vehicle_49" vType="human" speedFactor="0.85" vaporized="">
        <emissions CO_abs="0" CO2_abs="0" HC_abs="0" PMx_abs="0" NOx_abs="0" fuel_abs="0" electricity_abs="59.206069"/>
    </tripinfo>
    <tripinfo id="vehicle_1" depart="0.80" departLane="road1_0" departPos="4.10" departPosLat="0.00" departSpeed="5.99" departDelay="0.00" arrival="29.60" arrivalLane="-road2_0" arrivalPos="19.96" arrivalPosLat="0.00" arrivalSpeed="12.06" duration="28.80" routeLength="289.97" waitingTime="0.00" waitingCount="0" stopTime="0.00" timeLoss="5.27" rerouteNo="1" devices="tripinfo_vehicle_1 routing_vehicle_1 emissions_vehicle_1 battery_vehicle_1" vType="human" speedFactor="0.94" vaporized="">
        <emissions CO_abs="0" CO2_abs="0" HC_abs="0" PMx_abs="0" NOx_abs="0" fuel_abs="0" electricity_abs="90.291919"/>
    </tripinfo>
    <tripinfo id="vehicle_28" depart="8.00" departLane="road3_0" departPos="4.10" departPosLat="0.00" departSpeed="9.75" departDelay="0.00" arrival="29.60" arrivalLane="-road1_0" arrivalPos="19.96" arrivalPosLat="0.00" arrivalSpeed="13.40" duration="21.60" routeLength="206.37" waitingTime="0.00" waitingCount="0" stopTime="0.00" timeLoss="5.38" rerouteNo="1" devices="tripinfo_vehicle_28 routing_vehicle_28 emissions_vehicle_28 battery_vehicle_28" vType="human" speedFactor="1.13" vaporized="">
        <emissions CO_abs="0" CO2_abs="0" HC_abs="0" PMx_abs="0" NOx_abs="0" fuel_abs="0" electricity_abs="67.076994"/>
    </tripinfo>
    <tripinfo id="vehicle_21" depart="0.80" departLane="road2_0" departPos="4.10" departPosLat="0.00" departSpeed="0.10" departDelay="0.00" arrival="30.00" arrivalLane="-road3_0" arrivalPos="19.96" arrivalPosLat="0.00" arrivalSpeed="12.37" duration="29.20" routeLength="289.97" waitingTime="0.00" waitingCount="0" stopTime="0.00" timeLoss="6.69" rerouteNo="1" devices="tripinfo_vehicle_21 routing_vehicle_21 emissions_vehicle_21 battery_vehicle_21" vType="human" speedFactor="1.01" vaporized="">
        <emissions CO_abs="0" CO2_abs="0" HC_abs="0" PMx_abs="0" NOx_abs="0" fuel_abs="0" electricity_abs="102.150964"/>
    </tripinfo>
    <tripinfo id="vehicle_58" depart="7.20" departLane="road2_0" departPos="4.10" departPosLat="0.00" departSpeed="6.51" departDelay="0.00" arrival="30.40" arrivalLane="-road0_0" arrivalPos="19.96" arrivalPosLat="0.00" arrivalSpeed="13.52" duration="23.20" routeLength="206.37" waitingTime="0.00" waitingCount="0" stopTime="0.00" timeLoss="6.85" rerouteNo="1" devices="tripinfo_vehicle_58 routing_vehicle_58 emissions_vehicle_58 battery_vehicle_58" vType="human" speedFactor="1.02" vaporized="">
        <emissions CO_abs="0" CO2_abs="0" HC_abs="0" PMx_abs="0" NOx_abs="0" fuel_abs="0" electricity_abs="77.622286"/>
    </tripinfo>
    <tripinfo id="rl_0" depart="3.60" departLane="road0_0" departPos="4.10" departPosLat="0.00" departSpeed="1.52" departDelay="0.00" arrival="31.60" arrivalLane="-road1_0" arrivalPos="19.96" arrivalPosLat="0.00" arrivalSpeed="8.45" duration="28.00" routeLength="289.97" waitingTime="0.00" waitingCount="0" stopTime="0.00" timeLoss="5.82" rerouteNo="0" devices="tripinfo_rl_0 emissions_rl_0 battery_rl_0 driverstaterl_0" vType="rlAnget" speedFactor="1.03" vaporized="">
        <emissions CO_abs="0" CO2_abs="0" HC_abs="0" PMx_abs="0" NOx_abs="0" fuel_abs="0" electricity_abs="89.562975"/>
    </tripinfo>
    <tripinfo id="vehicle_10" depart="10.00" departLane="road3_0" departPos="4.10" departPosLat="0.00" departSpeed="3.63" departDelay="0.00" arrival="34.40" arrivalLane="-road1_0" arrivalPos="19.96" arrivalPosLat="0.00" arrivalSpeed="12.33" duration="24.40" routeLength="206.37" waitingTime="0.40" waitingCount="1" stopTime="0.00" timeLoss="8.19" rerouteNo="1" devices="tripinfo_vehicle_10 routing_vehicle_10 emissions_vehicle_10 battery_vehicle_10" vType="human" speedFactor="1.09" vaporized="">
        <emissions CO_abs="0" CO2_abs="0" HC_abs="0" PMx_abs="0" NOx_abs="0" fuel_abs="0" electricity_abs="81.733131"/>
    </tripinfo>
    <tripinfo id="vehicle_33" depart="3.60" departLane="road1_0" departPos="4.10" departPosLat="0.00" departSpeed="2.35" departDelay="0.80" arrival="34.40" arrivalLane="-road2_0" arrivalPos="19.96" arrivalPosLat="0.00" arrivalSpeed="12.76" duration="30.80" routeLength="289.97" waitingTime="0.00" waitingCount="0" stopTime="0.00" timeLoss="8.67" rerouteNo="1" devices="tripinfo_vehicle_33 routing_vehicle_33 emissions_vehicle_33 battery_vehicle_33" vType="human" speedFactor="1.17" vaporized="">
        <emissions CO_abs="0" CO2_abs="0" HC_abs="0" PMx_abs="0" NOx_abs="0" fuel_abs="0" electricity_abs="103.296854"/>
    </tripinfo>
    <tripinfo id="vehicle_34" depart="8.00" departLane="road1_0" departPos="4.10" departPosLat="0.00" departSpeed="2.90" departDelay="3.20" arrival="34.80" arrivalLane="-road3_0" arrivalPos="19.96" arrivalPosLat="0.00" arrivalSpeed="12.63" duration="26.80" routeLength="206.37" waitingTime="0.00" waitingCount="0" stopTime="0.00" timeLoss="10.28" rerouteNo="1" devices="tripinfo_vehicle_34 routing_vehicle_34 emissions_vehicle_34 battery_vehicle_34" vType="human" speedFactor="0.99" vaporized="">
        <emissions CO_abs="0" CO2_abs="0" HC_abs="0" PMx_abs="0" NOx_abs="0" fuel_abs="0" electricity_abs="81.665866"/>
    </tripinfo>
    <tripinfo id="vehicle_32" depart="17.60" departLane="road3_0" departPos="4.10" departPosLat="0.00" departSpeed="0.85" departDelay="4.40" arrival="37.20" arrivalLane="-road2_0" arrivalPos="19.96" arrivalPosLat="0.00" arrivalSpeed="11.65" duration="19.60" routeLength="122.77" waitingTime="0.00" waitingCount="0" stopTime="0.00" timeLoss="9.53" rerouteNo="1" devices="tripinfo_vehicle_32 routing_vehicle_32 emissions_vehicle_32 battery_vehicle_32" vType="human" speedFactor="1.01" vaporized="">
        <emissions CO_abs="0" CO2_abs="0" HC_abs="0" PMx_abs="0" NOx_abs="0" fuel_abs="0" electricity_abs="53.582978"/>
    </tripinfo>
    <tripinfo id="vehicle_8" depart="5.20" departLane="road0_0" departPos="4.10" departPosLat="0.00" departSpeed="0.17" departDelay="1.20" arrival="38.80" arrivalLane="-road3_0" arrivalPos="19.96" arrivalPosLat="0.00" arrivalSpeed="13.08" duration="33.60" routeLength="122.77" waitingTime="15.60" waitingCount="1" stopTime="0.00" timeLoss="22.65" rerouteNo="0" devices="tripinfo_vehicle_8 emissions_vehicle_8 battery_vehicle_8" vType="human" speedFactor="0.94" vaporized="">
        <emissions CO_abs="0" CO2_abs="0" HC_abs="0" PMx_abs="0" NOx_abs="0" fuel_abs="0" electricity_abs="67.896920"/>
    </tripinfo>
    <tripinfo id="vehicle_14" depart="20.40" departLane="road3_0" departPos="4.10" departPosLat="0.00" departSpeed="2.21" departDelay="4.80" arrival="39.60" arrivalLane="-road2_0" arrivalPos="19.96" arrivalPosLat="0.00" arrivalSpeed="12.41" duration="19.20" routeLength="122.77" waitingTime="0.00" waitingCount="0" stopTime="0.00" timeLoss="8.73" rerouteNo="1" devices="tripinfo_vehicle_14 routing_vehicle_14 emissions_vehicle_14 battery_vehicle_14" vType="human" speedFactor="0.99" vaporized="">
        <emissions CO_abs="0" CO2_abs="0" HC_abs="0" PMx_abs="0" NOx_abs="0" fuel_abs="0" electricity_abs="56.210090"/>
    </tripinfo>
    <tripinfo id="vehicle_17" depart="14.00" departLane="road1_0" departPos="4.10" departPosLat="0.00" departSpeed="1.65" departDelay="8.40" arrival="39.60" arrivalLane="-road0_0" arrivalPos="19.96" arrivalPosLat="0.00" arrivalSpeed="11.92" duration="25.60" routeLength="122.77" waitingTime="4.80" waitingCount="1" stopTime="0.00" timeLoss="14.79" rerouteNo="1" devices="tripinfo_vehicle_17 routing_vehicle_17 emissions_vehicle_17 battery_vehicle_17" vType="human" speedFactor="0.94" vaporized="">
        <emissions CO_abs="0" CO2_abs="0" HC_abs="0" PMx_abs="0" NOx_abs="0" fuel_abs="0" electricity_abs="59.702573"/>
    </tripinfo>
    <tripinfo id="vehicle_47" depart="13.20" departLane="road3_0" departPos="4.10" departPosLat="0.00" departSpeed="1.77" departDelay="1.60" arrival="40.80" arrivalLane="-road1_0" arrivalPos="19.96" arrivalPosLat="0.00" arrivalSpeed="11.91" duration="27.60" routeLength="206.37" waitingTime="0.00" waitingCount="0" stopTime="0.00" timeLoss="9.51" rerouteNo="1" devices="tripinfo_vehicle_47 routing_vehicle_47 emissions_vehicle_47 battery_vehicle_47" vType="human" speedFactor="0.90" vaporized="">
        <emissions CO_abs="0" CO2_abs="0" HC_abs="0" PMx_abs="0" NOx_abs="0" fuel_abs="0" electricity_abs="74.183403"/>
    </tripinfo>
    <tripinfo id="vehicle_77" depart="16.80" departLane="road1_0" departPos="4.10" departPosLat="0.00" departSpeed="0.91" departDelay="11.20" arrival="42.00" arrivalLane="-road0_0" arrivalPos="19.96" arrivalPosLat="0.00" arrivalSpeed="11.85" duration="25.20" routeLength="122.77" waitingTime="4.00" waitingCount="1" stopTime="0.00" timeLoss="14.75" rerouteNo="1" devices="tripinfo_vehicle_77 routing_vehicle_77 emissions_vehicle_77 battery_vehicle_77" vType="human" speedFactor="0.98" vaporized="">
        <emissions CO_abs="0" CO2_abs="0" HC_abs="0" PMx_abs="0" NOx_abs="0" fuel_abs="0" electricity_abs="58.882655"/>
    </tripinfo>
    <tripinfo id="vehicle_7" depart="22.40" departLane="road3_0" departPos="4.10" departPosLat="0.00" departSpeed="2.73" departDelay="6.40" arrival="42.40" arrivalLane="-road2_0" arrivalPos="19.96" arrivalPosLat="0.00" arrivalSpeed="11.00" duration="20.00" routeLength="122.77" waitingTime="0.00" waitingCount="0" stopTime="0.00" timeLoss="8.31" rerouteNo="1" devices="tripinfo_vehicle_7 routing_vehicle_7 emissions_vehicle_7 battery_vehicle_7" vType="human" speedFactor="0.89" vaporized="">
        <emissions CO_abs="0" CO2_abs="0" HC_abs="0" PMx_abs="0" NOx_abs="0" fuel_abs="0" electricity_abs="46.778896"/>
    </tripinfo>
    <tripinfo id="vehicle_60" depart="9.20" departLane="road0_0" departPos="4.10" departPosLat="0.00" departSpeed="0.11" departDelay="4.00" arrival="44.00" arrivalLane="-road3_0" arrivalPos="19.96" arrivalPosLat="0.00" arrivalSpeed="12.21" duration="34.80" routeLength="122.77" waitingTime="13.20" waitingCount="1" stopTime="0.00" timeLoss="24.65" rerouteNo="0" devices="tripinfo_vehicle_60 emissions_vehicle_60 battery_vehicle_60" vType="human" speedFactor="1.08" vaporized="">
        <emissions CO_abs="0" CO2_abs="0" HC_abs="0" PMx_abs="0" NOx_abs="0" fuel_abs="0" electricity_abs="64.868811"/>
    </tripinfo>
    <tripinfo id="vehicle_42" depart="11.20" departLane="road3_0" departPos="4.10" departPosLat="0.00" departSpeed="4.07" departDelay="0.40" arrival="44.80" arrivalLane="-road0_0" arrivalPos="19.96" arrivalPosLat="0.00" arrivalSpeed="12.18" duration="33.60" routeLength="289.97" waitingTime="0.00" waitingCount="0" stopTime="0.00" timeLoss="11.54" rerouteNo="1" devices="tripinfo_vehicle_42 routing_vehicle_42 emissions_vehicle_42 battery_vehicle_42" vType="human" speedFactor="1.09" vaporized="">
        <emissions CO_abs="0" CO2_abs="0" HC_abs="0" PMx_abs="0" NOx_abs="0" fuel_abs="0" electricity_abs="95.855013"/>
    </tripinfo>
    <tripinfo id="vehicle_12" depart="26.80" departLane="road1_0" departPos="4.10" departPosLat="0.00" departSpeed="1.20" departDelay="20.00" arrival="47.20" arrivalLane="-road0_0" arrivalPos="19.96" arrivalPosLat="0.00" arrivalSpeed="12.25" duration="20.40" routeLength="122.77" waitingTime="0.00" waitingCount="0" stopTime="0.00" timeLoss="9.83" rerouteNo="1" devices="tripinfo_vehicle_12 routing_vehicle_12 emissions_vehicle_12 battery_vehicle_12" vType="human" speedFactor="1.05" vaporized="">
        <emissions CO_abs="0" CO2_abs="0" HC_abs="0" PMx_abs="0" NOx_abs="0" fuel_abs="0" electricity_abs="56.488810"/>
    </tripinfo>
    <tripinfo id="vehicle_19" depart="7.20" departLane="road0_0" departPos="4.10" departPosLat="0.00" departSpeed="0.37" departDelay="2.00" arrival="48.80" arrivalLane="-road2_0" arrivalPos="19.96" arrivalPosLat="0.00" arrivalSpeed="12.83" duration="41.60" routeLength="206.37" waitingTime="14.40" waitingCount="1" stopTime="0.00" timeLoss="25.48" rerouteNo="0" devices="tripinfo_vehicle_19 emissions_vehicle_19 battery_vehicle_19" vType="human" speedFactor="1.16" vaporized="">
        <emissions CO_abs="0" CO2_abs="0" HC_abs="0" PMx_abs="0" NOx_abs="0" fuel_abs="0" electricity_abs="83.892118"/>
    </tripinfo>
    <tripinfo id="vehicle_25" depart="16.00" departLane="road2_0" departPos="4.10" departPosLat="0.00" departSpeed="1.33" departDelay="2.40" arrival="48.80" arrivalLane="-road1_0" arrivalPos="19.96" arrivalPosLat="0.00" arrivalSpeed="10.69" duration="32.80" routeLength="122.77" waitingTime="10.80" waitingCount="1" stopTime="0.00" timeLoss="21.22" rerouteNo="1" devices="tripinfo_vehicle_25 routing_vehicle_25 emissions_vehicle_25 battery_vehicle_25" vType="human" speedFactor="0.87" vaporized="">
        <emissions CO_abs="0" CO2_abs="0" HC_abs="0" PMx_abs="0" NOx_abs="0" fuel_abs="0" electricity_abs="51.073677"/>
    </tripinfo>
    <tripinfo id="vehicle_31" depart="31.20" departLane="road0_0" departPos="4.10" departPosLat="0.00" departSpeed="0.95" departDelay="20.80" arrival="49.20" arrivalLane="-road3_0" arrivalPos="19.96" arrivalPosLat="0.00" arrivalSpeed="12.06" duration="18.00" routeLength="122.77" waitingTime="0.00" waitingCount="0" stopTime="0.00" timeLoss="7.70" rerouteNo="0" devices="tripinfo_vehicle_31 emissions_vehicle_31 battery_vehicle_31" vType="human" speedFactor="1.15" vaporized="">
        <emissions CO_abs="0" CO2_abs="0" HC_abs="0" PMx_abs="0" NOx_abs="0" fuel_abs="0" electricity_abs="61.395022"/>
    </tripinfo>
    <tripinfo id="vehicle_70" depart="10.40" departLane="road1_0" departPos="4.10" departPosLat="0.00" departSpeed="1.16" departDelay="5.60" arrival="50.80" arrivalLane="-road2_0" arrivalPos="19.96" arrivalPosLat="0.00" arrivalSpeed="12.19" duration="40.40" routeLength="289.97" waitingTime="6.00" waitingCount="1" stopTime="0.00" timeLoss="18.33" rerouteNo="1" devices="tripinfo_vehicle_70 routing_vehicle_70 emissions_vehicle_70 battery_vehicle_70" vType="human" speedFactor="1.02" vaporized="">
        <emissions CO_abs="0" CO2_abs="0" HC_abs="0" PMx_abs="0" NOx_abs="0" fuel_abs="0" electricity_abs="102.858443"/>
    </tripinfo>
    <tripinfo id="vehicle_51" depart="24.40" departLane="road3_0" departPos="4.10" departPosLat="0.00" departSpeed="2.50" departDelay="7.60" arrival="52.00" arrivalLane="-road1_0" arrivalPos="19.96" arrivalPosLat="0.00" arrivalSpeed="12.00" duration="27.60" routeLength="206.37" waitingTime="0.00" waitingCount="0" stopTime="0.00" timeLoss="11.59" rerouteNo="1" devices="tripinfo_vehicle_51 routing_vehicle_51 emissions_vehicle_51 battery_vehicle_51" vType="human" speedFactor="1.17" vaporized="">
        <emissions CO_abs="0" CO2_abs="0" HC_abs="0" PMx_abs="0" NOx_abs="0" fuel_abs="0" electricity_abs="71.722802"/>
    </tripinfo>
    <tripinfo id="vehicle_71" depart="28.80" departLane="road3_0" departPos="4.10" departPosLat="0.00" departSpeed="2.88" departDelay="10.40" arrival="54.80" arrivalLane="-road1_0" arrivalPos="19.96" arrivalPosLat="0.00" arrivalSpeed="12.14" duration="26.00" routeLength="206.37" waitingTime="0.00" waitingCount="0" stopTime="0.00" timeLoss="9.25" rerouteNo="1" devices="tripinfo_vehicle_71 routing_vehicle_71 emissions_vehicle_71 battery_vehicle_71" vType="human" speedFactor="0.97" vaporized="">
        <emissions CO_abs="0" CO2_abs="0" HC_abs="0" PMx_abs="0" NOx_abs="0" fuel_abs="0" electricity_abs="73.268660"/>
    </tripinfo>
    <tripinfo id="vehicle_72" depart="28.00" departLane="road0_0" departPos="4.10" departPosLat="0.00" departSpeed="0.74" departDelay="21.60" arrival="55.20" arrivalLane="-road2_0" arrivalPos="19.96" arrivalPosLat="0.00" arrivalSpeed="12.56" duration="27.20" routeLength="206.37" waitingTime="0.00" waitingCount="0" stopTime="0.00" timeLoss="9.45" rerouteNo="0" devices="tripinfo_vehicle_72 emissions_vehicle_72 battery_vehicle_72" vType="human" speedFactor="0.94" vaporized="">
        <emissions CO_abs="0" CO2_abs="0" HC_abs="0" PMx_abs="0" NOx_abs="0" fuel_abs="0" electricity_abs="80.974052"/>
    </tripinfo>
    <tripinfo id="vehicle_63" depart="26.40" departLane="road3_0" departPos="4.10" departPosLat="0.00" departSpeed="2.52" departDelay="9.60" arrival="57.60" arrivalLane="-road0_0" arrivalPos="19.96" arrivalPosLat="0.00" arrivalSpeed="12.79" duration="31.20" routeLength="289.97" waitingTime="0.00" waitingCount="0" stopTime="0.00" timeLoss="8.71" rerouteNo="1" devices="tripinfo_vehicle_63 routing_vehicle_63 emissions_vehicle_63 battery_vehicle_63" vType="human" speedFactor="0.99" vaporized="">
        <emissions CO_abs="0" CO2_abs="0" HC_abs="0" PMx_abs="0" NOx_abs="0" fuel_abs="0" electricity_abs="101.423270"/>
    </tripinfo>
    <tripinfo id="vehicle_73" depart="11.60" departLane="road2_0" departPos="4.10" departPosLat="0.00" departSpeed="2.42" departDelay="0.40" arrival="57.60" arrivalLane="-road3_0" arrivalPos="19.96" arrivalPosLat="0.00" arrivalSpeed="11.65" duration="46.00" routeLength="289.97" waitingTime="13.60" waitingCount="1" stopTime="0.00" timeLoss="23.78" rerouteNo="1" devices="tripinfo_vehicle_73 routing_vehicle_73 emissions_vehicle_73 battery_vehicle_73" vType="human" speedFactor="1.06" vaporized="">
        <emissions CO_abs="0" CO2_abs="0" HC_abs="0" PMx_abs="0" NOx_abs="0" fuel_abs="0" electricity_abs="98.002792"/>
    </tripinfo>
    <tripinfo id="vehicle_0" depart="14.00" departLane="road2_0" departPos="4.10" departPosLat="0.00" departSpeed="3.60" departDelay="0.80" arrival="60.00" arrivalLane="-road3_0" arrivalPos="19.96" arrivalPosLat="0.00" arrivalSpeed="12.36" duration="46.00" routeLength="289.97" waitingTime="12.40" waitingCount="2" stopTime="0.00" timeLoss="23.65" rerouteNo="1" devices="tripinfo_vehicle_0 routing_vehicle_0 emissions_vehicle_0 battery_vehicle_0" vType="human" speedFactor="1.06" vaporized="">
        <emissions CO_abs="0" CO2_abs="0" HC_abs="0" PMx_abs="0" NOx_abs="0" fuel_abs="0" electricity_abs="99.162457"/>
    </tripinfo>
    <tripinfo id="vehicle_11" depart="29.60" departLane="road1_0" departPos="4.10" departPosLat="0.00" departSpeed="1.83" departDelay="20.80" arrival="60.40" arrivalLane="-road2_0" arrivalPos="19.96" arrivalPosLat="0.00" arrivalSpeed="12.00" duration="30.80" routeLength="289.97" waitingTime="0.00" waitingCount="0" stopTime="0.00" timeLoss="8.43" rerouteNo="1" devices="tripinfo_vehicle_11 routing_vehicle_11 emissions_vehicle_11 battery_vehicle_11" vType="human" speedFactor="1.03" vaporized="">
        <emissions CO_abs="0" CO2_abs="0" HC_abs="0" PMx_abs="0" NOx_abs="0" fuel_abs="0" electricity_abs="96.005643"/>
    </tripinfo>
    <tripinfo id="vehicle_15" depart="34.00" departLane="road1_0" departPos="4.10" departPosLat="0.00" departSpeed="2.23" departDelay="22.80" arrival="62.80" arrivalLane="-road3_0" arrivalPos="19.96" arrivalPosLat="0.00" arrivalSpeed="11.69" duration="28.80" routeLength="206.37" waitingTime="1.20" waitingCount="1" stopTime="0.00" timeLoss="11.04" rerouteNo="1" devices="tripinfo_vehicle_15 routing_vehicle_15 emissions_vehicle_15 battery_vehicle_15" vType="human" speedFactor="0.93" vaporized="">
        <emissions CO_abs="0" CO2_abs="0" HC_abs="0" PMx_abs="0" NOx_abs="0" fuel_abs="0" electricity_abs="74.358351"/>
    </tripinfo>
    <tripinfo id="vehicle_67" depart="46.40" departLane="road1_0" departPos="4.10" departPosLat="0.00" departSpeed="2.75" departDelay="29.60" arrival="63.60" arrivalLane="-road0_0" arrivalPos="19.96" arrivalPosLat="0.00" arrivalSpeed="11.33" duration="17.20" routeLength="122.77" waitingTime="0.00" waitingCount="0" stopTime="0.00" timeLoss="5.97" rerouteNo="1" devices="tripinfo_vehicle_67 routing_vehicle_67 emissions_vehicle_67 battery_vehicle_67" vType="human" speedFactor="0.91" vaporized="">
        <emissions CO_abs="0" CO2_abs="0" HC_abs="0" PMx_abs="0" NOx_abs="0" fuel_abs="0" electricity_abs="53.556684"/>
    </tripinfo>
    <tripinfo id="vehicle_16" depart="39.20" departLane="road0_0" departPos="4.10" departPosLat="0.00" departSpeed="4.79" departDelay="26.80" arrival="64.00" arrivalLane="-road2_0" arrivalPos="19.96" arrivalPosLat="0.00" arrivalSpeed="10.91" duration="24.80" routeLength="206.37" waitingTime="0.00" waitingCount="0" stopTime="0.00" timeLoss="6.21" rerouteNo="0" devices="tripinfo_vehicle_16 emissions_vehicle_16 battery_vehicle_16" vType="human" speedFactor="0.88" vaporized="">
        <emissions CO_abs="0" CO2_abs="0" HC_abs="0" PMx_abs="0" NOx_abs="0" fuel_abs="0" electricity_abs="62.430507"/>
    </tripinfo>
    <tripinfo id="vehicle_22" depart="34.40" departLane="road0_0" departPos="4.10" departPosLat="0.00" departSpeed="1.14" departDelay="23.60" arrival="64.80" arrivalLane="-road1_0" arrivalPos="19.96" arrivalPosLat="0.00" arrivalSpeed="13.09" duration="30.40" routeLength="289.97" waitingTime="0.00" waitingCount="0" stopTime="0.00" timeLoss="7.37" rerouteNo="0" devices="tripinfo_vehicle_22 emissions_vehicle_22 battery_vehicle_22" vType="human" speedFactor="0.97" vaporized="">
        <emissions CO_abs="0" CO2_abs="0" HC_abs="0" PMx_abs="0" NOx_abs="0" fuel_abs="0" electricity_abs="106.083686"/>
    </tripinfo>
    <tripinfo id="vehicle_5" depart="31.60" departLane="road1_0" departPos="4.10" departPosLat="0.00" departSpeed="2.45" departDelay="20.80" arrival="66.80" arrivalLane="-road2_0" arrivalPos="19.96" arrivalPosLat="0.00" arrivalSpeed="10.61" duration="35.20" routeLength="289.97" waitingTime="0.00" waitingCount="0" stopTime="0.00" timeLoss="8.56" rerouteNo="1" devices="tripinfo_vehicle_5 routing_vehicle_5 emissions_vehicle_5 battery_vehicle_5" vType="human" speedFactor="0.83" vaporized="">
        <emissions CO_abs="0" CO2_abs="0" HC_abs="0" PMx_abs="0" NOx_abs="0" fuel_abs="0" electricity_abs="76.805723"/>
    </tripinfo>
    <tripinfo id="vehicle_6" depart="36.80" departLane="road0_0" departPos="4.10" departPosLat="0.00" departSpeed="2.11" departDelay="24.80" arrival="66.80" arrivalLane="-road1_0" arrivalPos="19.96" arrivalPosLat="0.00" arrivalSpeed="12.44" duration="30.00" routeLength="289.97" waitingTime="0.00" waitingCount="0" stopTime="0.00" timeLoss="7.53" rerouteNo="0" devices="tripinfo_vehicle_6 emissions_vehicle_6 battery_vehicle_6" vType="human" speedFactor="1.05" vaporized="">
        <emissions CO_abs="0" CO2_abs="0" HC_abs="0" PMx_abs="0" NOx_abs="0" fuel_abs="0" electricity_abs="100.676043"/>
    </tripinfo>
    <tripinfo id="vehicle_45" depart="38.40" departLane="road1_0" departPos="4.10" departPosLat="0.00" departSpeed="1.21" departDelay="24.80" arrival="67.60" arrivalLane="-road3_0" arrivalPos="19.96" arrivalPosLat="0.00" arrivalSpeed="12.42" duration="29.20" routeLength="206.37" waitingTime="0.00" waitingCount="0" stopTime="0.00" timeLoss="12.96" rerouteNo="1" devices="tripinfo_vehicle_45 routing_vehicle_45 emissions_vehicle_45 battery_vehicle_45" vType="human" speedFactor="1.09" vaporized="">
        <emissions CO_abs="0" CO2_abs="0" HC_abs="0" PMx_abs="0" NOx_abs="0" fuel_abs="0" electricity_abs="77.862667"/>
    </tripinfo>
    <tripinfo id="vehicle_20" depart="51.20" departLane="road1_0" departPos="4.10" departPosLat="0.00" departSpeed="3.94" departDelay="32.40" arrival="68.40" arrivalLane="-road0_0" arrivalPos="19.96" arrivalPosLat="0.00" arrivalSpeed="12.15" duration="17.20" routeLength="122.77" waitingTime="0.00" waitingCount="0" stopTime="0.00" timeLoss="6.70" rerouteNo="1" devices="tripinfo_vehicle_20 routing_vehicle_20 emissions_vehicle_20 battery_vehicle_20" vType="human" speedFactor="1.02" vaporized="">
        <emissions CO_abs="0" CO2_abs="0" HC_abs="0" PMx_abs="0" NOx_abs="0" fuel_abs="0" electricity_abs="56.000173"/>
    </tripinfo>
    <tripinfo id="vehicle_43" depart="33.60" departLane="road2_0" departPos="4.10" departPosLat="0.00" departSpeed="1.11" departDelay="16.80" arrival="70.00" arrivalLane="-road1_0" arrivalPos="19.96" arrivalPosLat="0.00" arrivalSpeed="11.62" duration="36.40" routeLength="122.77" waitingTime="16.80" waitingCount="1" stopTime="0.00" timeLoss="26.10" rerouteNo="1" devices="tripinfo_vehicle_43 routing_vehicle_43 emissions_vehicle_43 battery_vehicle_43" vType="human" speedFactor="1.04" vaporized="">
        <emissions CO_abs="0" CO2_abs="0" HC_abs="0" PMx_abs="0" NOx_abs="0" fuel_abs="0" electricity_abs="57.993817"/>
    </tripinfo>
    <tripinfo id="vehicle_41" depart="52.80" departLane="road1_0" departPos="4.10" departPosLat="0.00" departSpeed="1.70" departDelay="32.80" arrival="70.80" arrivalLane="-road0_0" arrivalPos="19.96" arrivalPosLat="0.00" arrivalSpeed="11.47" duration="18.00" routeLength="122.77" waitingTime="0.00" waitingCount="0" stopTime="0.00" timeLoss="7.25" rerouteNo="1" devices="tripinfo_vehicle_41 routing_vehicle_41 emissions_vehicle_41 battery_vehicle_41" vType="human" speedFactor="0.96" vaporized="">
        <emissions CO_abs="0" CO2_abs="0" HC_abs="0" PMx_abs="0" NOx_abs="0" fuel_abs="0" electricity_abs="53.426432"/>
    </tripinfo>
    <tripinfo id="vehicle_62" depart="36.00" departLane="road1_0" departPos="4.10" departPosLat="0.00" departSpeed="0.94" departDelay="22.80" arrival="72.80" arrivalLane="-road2_0" arrivalPos="19.96" arrivalPosLat="0.00" arrivalSpeed="12.81" duration="36.80" routeLength="289.97" waitingTime="0.40" waitingCount="1" stopTime="0.00" timeLoss="14.21" rerouteNo="1" devices="tripinfo_vehicle_62 routing_vehicle_62 emissions_vehicle_62 battery_vehicle_62" vType="human" speedFactor="1.02" vaporized="">