<?xml version="1.0" encoding="UTF-8"?>

<!-- generated on 2025-08-10 10:51:25 by Eclipse SUMO sumo Version v1_20_0+0085-e155ab8699b
<configuration xmlns:xsi="http://www.w3.org/2001/XMLSchema-instance" xsi:noNamespaceSchemaLocation="http://sumo.dlr.de/xsd/sumoConfiguration.xsd">

    <input>
        <net-file value="../networks/roundabout.net.xml"/>
        <route-files value="../networks/routes_EIDM.rou.xml"/>
    </input>

    <output>
        <output-prefix value="154-"/>
        <battery-output.precision value="4"/>
        <tripinfo-output value="../networks/output_data/output_eidm/tripinfo/tripinfo-output.xml"/>
        <collision-output value="../networks/output_data/output_eidm/collision/collision-output.xml"/>
    </output>

    <time>
        <begin value="0"/>
        <step-length value="0.4"/>
    </time>

    <processing>
        <step-method.ballistic value="true"/>
        <lateral-resolution value="3.2"/>
        <collision.action value="warn"/>
        <collision.check-junctions value="True"/>
        <collision.mingap-factor value="0"/>
        <time-to-teleport value="-1"/>
        <random-depart-offset value="5"/>
    </processing>

    <report>
        <no-warnings value="True"/>
        <no-step-log value="True"/>
    </report>

    <emissions>
        <device.emissions.probability value="1"/>
    </emissions>

    <battery>
        <device.battery.probability value="1"/>
    </battery>

    <traci_server>
        <remote-port value="44351"/>
    </traci_server>

    <gui_only>
        <quit-on-end value="True"/>
        <start value="True"/>
        <delay value="0"/>
    </gui_only>

</configuration>
-->

<tripinfos xmlns:xsi="http://www.w3.org/2001/XMLSchema-instance" xsi:noNamespaceSchemaLocation="http://sumo.dlr.de/xsd/tripinfo_file.xsd">
    <tripinfo id="vehicle_43" depart="0.40" departLane="road1_0" departPos="4.10" departPosLat="0.00" departSpeed="0.10" departDelay="0.00" arrival="15.20" arrivalLane="-road0_0" arrivalPos="19.96" arrivalPosLat="0.00" arrivalSpeed="13.05" duration="14.80" routeLength="122.77" waitingTime="0.00" waitingCount="0" stopTime="0.00" timeLoss="4.61" rerouteNo="1" devices="tripinfo_vehicle_43 routing_vehicle_43 emissions_vehicle_43 battery_vehicle_43" vType="human" speedFactor="1.04" vaporized="">
        <emissions CO_abs="0" CO2_abs="0" HC_abs="0" PMx_abs="0" NOx_abs="0" fuel_abs="0" electricity_abs="71.196189"/>
    </tripinfo>
    <tripinfo id="vehicle_62" depart="2.40" departLane="road1_0" departPos="4.10" departPosLat="0.00" departSpeed="3.76" departDelay="2.00" arrival="18.80" arrivalLane="-road0_0" arrivalPos="19.96" arrivalPosLat="0.00" arrivalSpeed="12.18" duration="16.40" routeLength="122.77" waitingTime="0.00" waitingCount="0" stopTime="0.00" timeLoss="5.86" rerouteNo="1" devices="tripinfo_vehicle_62 routing_vehicle_62 emissions_vehicle_62 battery_vehicle_62" vType="human" speedFactor="1.02" vaporized="">
        <emissions CO_abs="0" CO2_abs="0" HC_abs="0" PMx_abs="0" NOx_abs="0" fuel_abs="0" electricity_abs="57.795543"/>
    </tripinfo>
    <tripinfo id="vehicle_31" depart="4.80" departLane="road0_0" departPos="4.10" departPosLat="0.00" departSpeed="0.16" departDelay="0.40" arrival="20.40" arrivalLane="-road3_0" arrivalPos="19.96" arrivalPosLat="0.00" arrivalSpeed="11.67" duration="15.60" routeLength="122.77" waitingTime="0.00" waitingCount="0" stopTime="0.00" timeLoss="5.25" rerouteNo="0" devices="tripinfo_vehicle_31 emissions_vehicle_31 battery_vehicle_31" vType="human" speedFactor="1.15" vaporized="">
        <emissions CO_abs="0" CO2_abs="0" HC_abs="0" PMx_abs="0" NOx_abs="0" fuel_abs="0" electricity_abs="61.254084"/>
    </tripinfo>
    <tripinfo id="vehicle_39" depart="0.80" departLane="road2_0" departPos="4.10" departPosLat="0.00" departSpeed="5.43" departDelay="0.00" arrival="24.80" arrivalLane="-road0_0" arrivalPos="19.96" arrivalPosLat="0.00" arrivalSpeed="11.64" duration="24.00" routeLength="206.37" waitingTime="0.00" waitingCount="0" stopTime="0.00" timeLoss="5.86" rerouteNo="1" devices="tripinfo_vehicle_39 routing_vehicle_39 emissions_vehicle_39 battery_vehicle_39" vType="human" speedFactor="0.90" vaporized="">
        <emissions CO_abs="0" CO2_abs="0" HC_abs="0" PMx_abs="0" NOx_abs="0" fuel_abs="0" electricity_abs="64.413186"/>
    </tripinfo>
    <tripinfo id="vehicle_67" depart="2.00" departLane="road2_0" departPos="4.10" departPosLat="0.00" departSpeed="2.44" departDelay="0.00" arrival="26.80" arrivalLane="-road0_0" arrivalPos="19.96" arrivalPosLat="0.00" arrivalSpeed="11.70" duration="24.80" routeLength="206.37" waitingTime="0.00" waitingCount="0" stopTime="0.00" timeLoss="6.93" rerouteNo="1" devices="tripinfo_vehicle_67 routing_vehicle_67 emissions_vehicle_67 battery_vehicle_67" vType="human" speedFactor="0.91" vaporized="">
        <emissions CO_abs="0" CO2_abs="0" HC_abs="0" PMx_abs="0" NOx_abs="0" fuel_abs="0" electricity_abs="71.978899"/>
    </tripinfo>
    <tripinfo id="vehicle_44" depart="0.00" departLane="road3_0" departPos="4.10" departPosLat="0.00" departSpeed="6.33" departDelay="0.00" arrival="29.20" arrivalLane="-road0_0" arrivalPos="19.96" arrivalPosLat="0.00" arrivalSpeed="11.80" duration="29.20" routeLength="289.97" waitingTime="0.00" waitingCount="0" stopTime="0.00" timeLoss="7.08" rerouteNo="1" devices="tripinfo_vehicle_44 routing_vehicle_44 emissions_vehicle_44 battery_vehicle_44" vType="human" speedFactor="1.04" vaporized="">
        <emissions CO_abs="0" CO2_abs="0" HC_abs="0" PMx_abs="0" NOx_abs="0" fuel_abs="0" electricity_abs="88.605280"/>
    </tripinfo>
    <tripinfo id="vehicle_76" depart="6.80" departLane="road3_0" departPos="4.10" departPosLat="0.00" departSpeed="0.68" departDelay="2.00" arrival="29.60" arrivalLane="-road1_0" arrivalPos="19.96" arrivalPosLat="0.00" arrivalSpeed="12.69" duration="22.80" routeLength="206.37" waitingTime="0.00" waitingCount="0" stopTime="0.00" timeLoss="6.25" rerouteNo="1" devices="tripinfo_vehicle_76 routing_vehicle_76 emissions_vehicle_76 battery_vehicle_76" vType="human" speedFactor="1.03" vaporized="">
        <emissions CO_abs="0" CO2_abs="0" HC_abs="0" PMx_abs="0" NOx_abs="0" fuel_abs="0" electricity_abs="87.649295"/>
    </tripinfo>
    <tripinfo id="vehicle_54" depart="3.60" departLane="road3_0" departPos="4.10" departPosLat="0.00" departSpeed="1.52" departDelay="0.00" arrival="33.60" arrivalLane="-road0_0" arrivalPos="19.96" arrivalPosLat="0.00" arrivalSpeed="12.28" duration="30.00" routeLength="289.97" waitingTime="0.00" waitingCount="0" stopTime="0.00" timeLoss="7.63" rerouteNo="1" devices="tripinfo_vehicle_54 routing_vehicle_54 emissions_vehicle_54 battery_vehicle_54" vType="human" speedFactor="1.00" vaporized="">
        <emissions CO_abs="0" CO2_abs="0" HC_abs="0" PMx_abs="0" NOx_abs="0" fuel_abs="0" electricity_abs="100.809816"/>
    </tripinfo>
    <tripinfo id="vehicle_17" depart="3.60" departLane="road0_0" departPos="4.10" departPosLat="0.00" departSpeed="5.20" departDelay="0.00" arrival="34.40" arrivalLane="-road1_0" arrivalPos="19.96" arrivalPosLat="0.00" arrivalSpeed="11.72" duration="30.80" routeLength="289.97" waitingTime="0.00" waitingCount="0" stopTime="0.00" timeLoss="7.25" rerouteNo="0" devices="tripinfo_vehicle_17 emissions_vehicle_17 battery_vehicle_17" vType="human" speedFactor="0.94" vaporized="">
        <emissions CO_abs="0" CO2_abs="0" HC_abs="0" PMx_abs="0" NOx_abs="0" fuel_abs="0" electricity_abs="84.490915"/>
    </tripinfo>
    <tripinfo id="vehicle_34" depart="10.80" departLane="road0_0" departPos="4.10" departPosLat="0.00" departSpeed="2.03" departDelay="6.00" arrival="35.60" arrivalLane="-road2_0" arrivalPos="19.96" arrivalPosLat="0.00" arrivalSpeed="12.44" duration="24.80" routeLength="206.37" waitingTime="0.00" waitingCount="0" stopTime="0.00" timeLoss="8.33" rerouteNo="0" devices="tripinfo_vehicle_34 emissions_vehicle_34 battery_vehicle_34" vType="human" speedFactor="0.99" vaporized="">
        <emissions CO_abs="0" CO2_abs="0" HC_abs="0" PMx_abs="0" NOx_abs="0" fuel_abs="0" electricity_abs="75.983365"/>
    </tripinfo>
    <tripinfo id="vehicle_57" depart="5.20" departLane="road3_0" departPos="4.10" departPosLat="0.00" departSpeed="4.03" departDelay="0.40" arrival="36.00" arrivalLane="-road0_0" arrivalPos="19.96" arrivalPosLat="0.00" arrivalSpeed="12.40" duration="30.80" routeLength="289.97" waitingTime="0.00" waitingCount="0" stopTime="0.00" timeLoss="8.70" rerouteNo="1" devices="tripinfo_vehicle_57 routing_vehicle_57 emissions_vehicle_57 battery_vehicle_57" vType="human" speedFactor="1.14" vaporized="">
        <emissions CO_abs="0" CO2_abs="0" HC_abs="0" PMx_abs="0" NOx_abs="0" fuel_abs="0" electricity_abs="98.504760"/>
    </tripinfo>
    <tripinfo id="vehicle_52" depart="6.40" departLane="road1_0" departPos="4.10" departPosLat="0.00" departSpeed="0.18" departDelay="0.00" arrival="38.40" arrivalLane="-road2_0" arrivalPos="19.96" arrivalPosLat="0.00" arrivalSpeed="12.71" duration="32.00" routeLength="289.97" waitingTime="0.00" waitingCount="0" stopTime="0.00" timeLoss="9.44" rerouteNo="1" devices="tripinfo_vehicle_52 routing_vehicle_52 emissions_vehicle_52 battery_vehicle_52" vType="human" speedFactor="1.02" vaporized="">
        <emissions CO_abs="0" CO2_abs="0" HC_abs="0" PMx_abs="0" NOx_abs="0" fuel_abs="0" electricity_abs="99.147288"/>
    </tripinfo>
    <tripinfo id="vehicle_65" depart="6.80" departLane="road0_0" departPos="4.10" departPosLat="0.00" departSpeed="2.62" departDelay="2.40" arrival="38.80" arrivalLane="-road1_0" arrivalPos="19.96" arrivalPosLat="0.00" arrivalSpeed="11.30" duration="32.00" routeLength="289.97" waitingTime="0.00" waitingCount="0" stopTime="0.00" timeLoss="6.57" rerouteNo="0" devices="tripinfo_vehicle_65 emissions_vehicle_65 battery_vehicle_65" vType="human" speedFactor="0.88" vaporized="">
        <emissions CO_abs="0" CO2_abs="0" HC_abs="0" PMx_abs="0" NOx_abs="0" fuel_abs="0" electricity_abs="87.712136"/>
    </tripinfo>
    <tripinfo id="vehicle_36" depart="6.00" departLane="road2_0" departPos="4.10" departPosLat="0.00" departSpeed="4.12" departDelay="0.00" arrival="39.60" arrivalLane="-road3_0" arrivalPos="19.96" arrivalPosLat="0.00" arrivalSpeed="13.40" duration="33.60" routeLength="289.97" waitingTime="0.00" waitingCount="0" stopTime="0.00" timeLoss="10.41" rerouteNo="1" devices="tripinfo_vehicle_36 routing_vehicle_36 emissions_vehicle_36 battery_vehicle_36" vType="human" speedFactor="0.97" vaporized="">
        <emissions CO_abs="0" CO2_abs="0" HC_abs="0" PMx_abs="0" NOx_abs="0" fuel_abs="0" electricity_abs="98.711956"/>
    </tripinfo>
    <tripinfo id="vehicle_74" depart="9.60" departLane="road3_0" departPos="4.10" departPosLat="0.00" departSpeed="3.72" departDelay="2.40" arrival="40.40" arrivalLane="-road0_0" arrivalPos="19.96" arrivalPosLat="0.00" arrivalSpeed="11.61" duration="30.80" routeLength="289.97" waitingTime="0.00" waitingCount="0" stopTime="0.00" timeLoss="7.41" rerouteNo="1" devices="tripinfo_vehicle_74 routing_vehicle_74 emissions_vehicle_74 battery_vehicle_74" vType="human" speedFactor="0.96" vaporized="">
        <emissions CO_abs="0" CO2_abs="0" HC_abs="0" PMx_abs="0" NOx_abs="0" fuel_abs="0" electricity_abs="92.664144"/>
    </tripinfo>
    <tripinfo id="vehicle_10" depart="16.00" departLane="road3_0" departPos="4.10" departPosLat="0.00" departSpeed="0.84" departDelay="4.80" arrival="42.80" arrivalLane="-road2_0" arrivalPos="19.96" arrivalPosLat="0.00" arrivalSpeed="12.66" duration="26.80" routeLength="122.77" waitingTime="6.40" waitingCount="1" stopTime="0.00" timeLoss="16.43" rerouteNo="1" devices="tripinfo_vehicle_10 routing_vehicle_10 emissions_vehicle_10 battery_vehicle_10" vType="human" speedFactor="1.09" vaporized="">
        <emissions CO_abs="0" CO2_abs="0" HC_abs="0" PMx_abs="0" NOx_abs="0" fuel_abs="0" electricity_abs="63.718115"/>
    </tripinfo>
    <tripinfo id="vehicle_24" depart="8.40" departLane="road0_0" departPos="4.10" departPosLat="0.00" departSpeed="1.97" departDelay="3.60" arrival="42.80" arrivalLane="-road1_0" arrivalPos="19.96" arrivalPosLat="0.00" arrivalSpeed="10.70" duration="34.40" routeLength="289.97" waitingTime="0.00" waitingCount="0" stopTime="0.00" timeLoss="7.50" rerouteNo="0" devices="tripinfo_vehicle_24 emissions_vehicle_24 battery_vehicle_24" vType="human" speedFactor="0.83" vaporized="">
        <emissions CO_abs="0" CO2_abs="0" HC_abs="0" PMx_abs="0" NOx_abs="0" fuel_abs="0" electricity_abs="79.538472"/>
    </tripinfo>
    <tripinfo id="vehicle_60" depart="10.00" departLane="road1_0" departPos="4.10" departPosLat="0.00" departSpeed="6.20" departDelay="0.00" arrival="43.20" arrivalLane="-road0_0" arrivalPos="19.96" arrivalPosLat="0.00" arrivalSpeed="12.19" duration="33.20" routeLength="122.77" waitingTime="15.60" waitingCount="1" stopTime="0.00" timeLoss="23.13" rerouteNo="1" devices="tripinfo_vehicle_60 routing_vehicle_60 emissions_vehicle_60 battery_vehicle_60" vType="human" speedFactor="1.08" vaporized="">
        <emissions CO_abs="0" CO2_abs="0" HC_abs="0" PMx_abs="0" NOx_abs="0" fuel_abs="0" electricity_abs="53.281729"/>
    </tripinfo>
    <tripinfo id="rl_0" depart="13.20" departLane="road0_0" departPos="4.10" departPosLat="0.00" departSpeed="1.09" departDelay="8.00" arrival="45.20" arrivalLane="-road3_0" arrivalPos="19.96" arrivalPosLat="0.00" arrivalSpeed="8.48" duration="32.00" routeLength="122.77" waitingTime="10.40" waitingCount="1" stopTime="0.00" timeLoss="21.79" rerouteNo="0" devices="tripinfo_rl_0 emissions_rl_0 battery_rl_0 driverstaterl_0" vType="rlAnget" speedFactor="1.03" vaporized="">
        <emissions CO_abs="0" CO2_abs="0" HC_abs="0" PMx_abs="0" NOx_abs="0" fuel_abs="0" electricity_abs="41.635179"/>
    </tripinfo>
    <tripinfo id="vehicle_18" depart="18.00" departLane="road3_0" departPos="4.10" departPosLat="0.00" departSpeed="1.35" departDelay="5.60" arrival="45.60" arrivalLane="-road2_0" arrivalPos="19.96" arrivalPosLat="0.00" arrivalSpeed="11.86" duration="27.60" routeLength="122.77" waitingTime="5.60" waitingCount="1" stopTime="0.00" timeLoss="16.47" rerouteNo="1" devices="tripinfo_vehicle_18 routing_vehicle_18 emissions_vehicle_18 battery_vehicle_18" vType="human" speedFactor="0.94" vaporized="">
        <emissions CO_abs="0" CO2_abs="0" HC_abs="0" PMx_abs="0" NOx_abs="0" fuel_abs="0" electricity_abs="55.984775"/>
    </tripinfo>
    <tripinfo id="vehicle_5" depart="11.20" departLane="road3_0" departPos="4.10" departPosLat="0.00" departSpeed="2.51" departDelay="2.00" arrival="46.40" arrivalLane="-road0_0" arrivalPos="19.96" arrivalPosLat="0.00" arrivalSpeed="10.15" duration="35.20" routeLength="289.97" waitingTime="0.00" waitingCount="0" stopTime="0.00" timeLoss="8.35" rerouteNo="1" devices="tripinfo_vehicle_5 routing_vehicle_5 emissions_vehicle_5 battery_vehicle_5" vType="human" speedFactor="0.83" vaporized="">
        <emissions CO_abs="0" CO2_abs="0" HC_abs="0" PMx_abs="0" NOx_abs="0" fuel_abs="0" electricity_abs="74.912269"/>
    </tripinfo>
    <tripinfo id="vehicle_48" depart="29.60" departLane="road3_0" departPos="4.10" departPosLat="0.00" departSpeed="1.34" departDelay="15.20" arrival="48.40" arrivalLane="-road2_0" arrivalPos="19.96" arrivalPosLat="0.00" arrivalSpeed="10.39" duration="18.80" routeLength="122.77" waitingTime="0.00" waitingCount="0" stopTime="0.00" timeLoss="7.09" rerouteNo="1" devices="tripinfo_vehicle_48 routing_vehicle_48 emissions_vehicle_48 battery_vehicle_48" vType="human" speedFactor="0.88" vaporized="">
        <emissions CO_abs="0" CO2_abs="0" HC_abs="0" PMx_abs="0" NOx_abs="0" fuel_abs="0" electricity_abs="46.239939"/>
    </tripinfo>
    <tripinfo id="vehicle_8" depart="13.20" departLane="road3_0" departPos="4.10" departPosLat="0.00" departSpeed="1.61" departDelay="4.00" arrival="49.20" arrivalLane="-road1_0" arrivalPos="19.96" arrivalPosLat="0.00" arrivalSpeed="12.52" duration="36.00" routeLength="206.37" waitingTime="7.60" waitingCount="1" stopTime="0.00" timeLoss="18.53" rerouteNo="1" devices="tripinfo_vehicle_8 routing_vehicle_8 emissions_vehicle_8 battery_vehicle_8" vType="human" speedFactor="0.94" vaporized="">
        <emissions CO_abs="0" CO2_abs="0" HC_abs="0" PMx_abs="0" NOx_abs="0" fuel_abs="0" electricity_abs="78.858234"/>
    </tripinfo>
    <tripinfo id="vehicle_61" depart="32.80" departLane="road1_0" departPos="4.10" departPosLat="0.00" departSpeed="1.02" departDelay="18.00" arrival="51.60" arrivalLane="-road0_0" arrivalPos="19.96" arrivalPosLat="0.00" arrivalSpeed="12.95" duration="18.80" routeLength="122.77" waitingTime="0.00" waitingCount="0" stopTime="0.00" timeLoss="8.68" rerouteNo="1" devices="tripinfo_vehicle_61 routing_vehicle_61 emissions_vehicle_61 battery_vehicle_61" vType="human" speedFactor="1.12" vaporized="">
        <emissions CO_abs="0" CO2_abs="0" HC_abs="0" PMx_abs="0" NOx_abs="0" fuel_abs="0" electricity_abs="63.352522"/>
    </tripinfo>
    <tripinfo id="vehicle_75" depart="7.20" departLane="road2_0" departPos="4.10" departPosLat="0.00" departSpeed="4.66" departDelay="1.20" arrival="52.40" arrivalLane="-road1_0" arrivalPos="19.96" arrivalPosLat="0.00" arrivalSpeed="11.96" duration="45.20" routeLength="122.77" waitingTime="25.20" waitingCount="1" stopTime="0.00" timeLoss="34.47" rerouteNo="1" devices="tripinfo_vehicle_75 routing_vehicle_75 emissions_vehicle_75 battery_vehicle_75" vType="human" speedFactor="0.98" vaporized="">
        <emissions CO_abs="0" CO2_abs="0" HC_abs="0" PMx_abs="0" NOx_abs="0" fuel_abs="0" electricity_abs="55.896891"/>
    </tripinfo>
    <tripinfo id="vehicle_0" depart="15.60" departLane="road0_0" departPos="4.10" departPosLat="0.00" departSpeed="2.98" departDelay="10.00" arrival="55.20" arrivalLane="-road2_0" arrivalPos="19.96" arrivalPosLat="0.00" arrivalSpeed="12.97" duration="39.60" routeLength="206.37" waitingTime="10.40" waitingCount="1" stopTime="0.00" timeLoss="23.15" rerouteNo="0" devices="tripinfo_vehicle_0 emissions_vehicle_0 battery_vehicle_0" vType="human" speedFactor="1.06" vaporized="">
        <emissions CO_abs="0" CO2_abs="0" HC_abs="0" PMx_abs="0" NOx_abs="0" fuel_abs="0" electricity_abs="80.688607"/>
    </tripinfo>
    <tripinfo id="vehicle_32" depart="14.80" departLane="road1_0" departPos="4.10" departPosLat="0.00" departSpeed="2.76" departDelay="0.00" arrival="57.60" arrivalLane="-road3_0" arrivalPos="19.96" arrivalPosLat="0.00" arrivalSpeed="12.66" duration="42.80" routeLength="206.37" waitingTime="13.20" waitingCount="1" stopTime="0.00" timeLoss="26.06" rerouteNo="1" devices="tripinfo_vehicle_32 routing_vehicle_32 emissions_vehicle_32 battery_vehicle_32" vType="human" speedFactor="1.01" vaporized="">
        <emissions CO_abs="0" CO2_abs="0" HC_abs="0" PMx_abs="0" NOx_abs="0" fuel_abs="0" electricity_abs="78.100348"/>
    </tripinfo>
    <tripinfo id="vehicle_42" depart="40.00" departLane="road1_0" departPos="4.10" departPosLat="0.00" departSpeed="1.10" departDelay="20.80" arrival="58.40" arrivalLane="-road0_0" arrivalPos="19.96" arrivalPosLat="0.00" arrivalSpeed="13.10" duration="18.40" routeLength="122.77" waitingTime="0.00" waitingCount="0" stopTime="0.00" timeLoss="8.00" rerouteNo="1" devices="tripinfo_vehicle_42 routing_vehicle_42 emissions_vehicle_42 battery_vehicle_42" vType="human" speedFactor="1.09" vaporized="">
        <emissions CO_abs="0" CO2_abs="0" HC_abs="0" PMx_abs="0" NOx_abs="0" fuel_abs="0" electricity_abs="64.020793"/>
    </tripinfo>
    <tripinfo id="vehicle_66" depart="32.00" departLane="road3_0" departPos="4.10" departPosLat="0.00" departSpeed="2.37" departDelay="17.20" arrival="58.40" arrivalLane="-road1_0" arrivalPos="19.96" arrivalPosLat="0.00" arrivalSpeed="11.62" duration="26.40" routeLength="206.37" waitingTime="0.00" waitingCount="0" stopTime="0.00" timeLoss="8.31" rerouteNo="1" devices="tripinfo_vehicle_66 routing_vehicle_66 emissions_vehicle_66 battery_vehicle_66" vType="human" speedFactor="0.91" vaporized="">
        <emissions CO_abs="0" CO2_abs="0" HC_abs="0" PMx_abs="0" NOx_abs="0" fuel_abs="0" electricity_abs="68.909760"/>
    </tripinfo>
    <tripinfo id="vehicle_1" depart="42.00" departLane="road1_0" departPos="4.10" departPosLat="0.00" departSpeed="2.43" departDelay="20.40" arrival="60.80" arrivalLane="-road0_0" arrivalPos="19.96" arrivalPosLat="0.00" arrivalSpeed="11.57" duration="18.80" routeLength="122.77" waitingTime="0.00" waitingCount="0" stopTime="0.00" timeLoss="7.62" rerouteNo="1" devices="tripinfo_vehicle_1 routing_vehicle_1 emissions_vehicle_1 battery_vehicle_1" vType="human" speedFactor="0.94" vaporized="">
        <emissions CO_abs="0" CO2_abs="0" HC_abs="0" PMx_abs="0" NOx_abs="0" fuel_abs="0" electricity_abs="50.998320"/>
    </tripinfo>
    <tripinfo id="vehicle_77" depart="35.60" departLane="road1_0" departPos="4.10" departPosLat="0.00" departSpeed="2.66" departDelay="19.60" arrival="62.00" arrivalLane="-road3_0" arrivalPos="19.96" arrivalPosLat="0.00" arrivalSpeed="13.70" duration="26.40" routeLength="206.37" waitingTime="0.00" waitingCount="0" stopTime="0.00" timeLoss="9.51" rerouteNo="1" devices="tripinfo_vehicle_77 routing_vehicle_77 emissions_vehicle_77 battery_vehicle_77" vType="human" speedFactor="0.98" vaporized="">
        <emissions CO_abs="0" CO2_abs="0" HC_abs="0" PMx_abs="0" NOx_abs="0" fuel_abs="0" electricity_abs="84.213778"/>
    </tripinfo>
    <tripinfo id="vehicle_7" depart="8.80" departLane="road2_0" departPos="4.10" departPosLat="0.00" departSpeed="2.25" departDelay="0.40" arrival="63.20" arrivalLane="-road0_0" arrivalPos="19.96" arrivalPosLat="0.00" arrivalSpeed="12.25" duration="54.40" routeLength="206.37" waitingTime="24.00" waitingCount="1" stopTime="0.00" timeLoss="36.31" rerouteNo="1" devices="tripinfo_vehicle_7 routing_vehicle_7 emissions_vehicle_7 battery_vehicle_7" vType="human" speedFactor="0.89" vaporized="">
        <emissions CO_abs="0" CO2_abs="0" HC_abs="0" PMx_abs="0" NOx_abs="0" fuel_abs="0" electricity_abs="73.769850"/>
    </tripinfo>
    <tripinfo id="vehicle_2" depart="11.60" departLane="road1_0" departPos="4.10" departPosLat="0.00" departSpeed="4.96" departDelay="0.00" arrival="64.00" arrivalLane="-road2_0" arrivalPos="19.96" arrivalPosLat="0.00" arrivalSpeed="11.81" duration="52.40" routeLength="289.97" waitingTime="14.40" waitingCount="1" stopTime="0.00" timeLoss="30.21" rerouteNo="1" devices="tripinfo_vehicle_2 routing_vehicle_2 emissions_vehicle_2 battery_vehicle_2" vType="human" speedFactor="1.01" vaporized="">
        <emissions CO_abs="0" CO2_abs="0" HC_abs="0" PMx_abs="0" NOx_abs="0" fuel_abs="0" electricity_abs="83.152547"/>
    </tripinfo>
    <tripinfo id="vehicle_35" depart="38.00" departLane="road1_0" departPos="4.10" departPosLat="0.00" departSpeed="3.06" departDelay="20.40" arrival="64.40" arrivalLane="-road3_0" arrivalPos="19.96" arrivalPosLat="0.00" arrivalSpeed="13.25" duration="26.40" routeLength="206.37" waitingTime="0.00" waitingCount="0" stopTime="0.00" timeLoss="10.03" rerouteNo="1" devices="tripinfo_vehicle_35 routing_vehicle_35 emissions_vehicle_35 battery_vehicle_35" vType="human" speedFactor="1.02" vaporized="">
        <emissions CO_abs="0" CO2_abs="0" HC_abs="0" PMx_abs="0" NOx_abs="0" fuel_abs="0" electricity_abs="80.486368"/>
    </tripinfo>
    <tripinfo id="vehicle_6" depart="17.60" departLane="road0_0" departPos="4.10" departPosLat="0.00" departSpeed="2.76" departDelay="7.60" arrival="64.80" arrivalLane="-road1_0" arrivalPos="19.96" arrivalPosLat="0.00" arrivalSpeed="12.45" duration="47.20" routeLength="289.97" waitingTime="9.60" waitingCount="1" stopTime="0.00" timeLoss="24.84" rerouteNo="0" devices="tripinfo_vehicle_6 emissions_vehicle_6 battery_vehicle_6" vType="human" speedFactor="1.05" vaporized="">
        <emissions CO_abs="0" CO2_abs="0" HC_abs="0" PMx_abs="0" NOx_abs="0" fuel_abs="0" electricity_abs="93.870291"/>
    </tripinfo>
    <tripinfo id="vehicle_21" depart="33.20" departLane="road0_0" departPos="4.10" departPosLat="0.00" departSpeed="0.58" departDelay="18.00" arrival="68.80" arrivalLane="-road1_0" arrivalPos="19.96" arrivalPosLat="0.00" arrivalSpeed="12.39" duration="35.60" routeLength="289.97" waitingTime="0.00" waitingCount="0" stopTime="0.00" timeLoss="13.40" rerouteNo="0" devices="tripinfo_vehicle_21 emissions_vehicle_21 battery_vehicle_21" vType="human" speedFactor="1.01" vaporized="">
        <emissions CO_abs="0" CO2_abs="0" HC_abs="0" PMx_abs="0" NOx_abs="0" fuel_abs="0" electricity_abs="94.216894"/>
    </tripinfo>
    <tripinfo id="vehicle_49" depart="34.40" departLane="road3_0" departPos="4.10" departPosLat="0.00" departSpeed="2.56" departDelay="17.20" arrival="68.80" arrivalLane="-road0_0" arrivalPos="19.96" arrivalPosLat="0.00" arrivalSpeed="10.73" duration="34.40" routeLength="289.97" waitingTime="0.00" waitingCount="0" stopTime="0.00" timeLoss="8.48" rerouteNo="1" devices="tripinfo_vehicle_49 routing_vehicle_49 emissions_vehicle_49 battery_vehicle_49" vType="human" speedFactor="0.85" vaporized="">
        <emissions CO_abs="0" CO2_abs="0" HC_abs="0" PMx_abs="0" NOx_abs="0" fuel_abs="0" electricity_abs="78.988994"/>
    </tripinfo>
    <tripinfo id="vehicle_78" depart="46.00" departLane="road3_0" departPos="4.10" departPosLat="0.00" departSpeed="1.46" departDelay="27.20" arrival="69.20" arrivalLane="-road2_0" arrivalPos="19.96" arrivalPosLat="0.00" arrivalSpeed="12.24" duration="23.20" routeLength="122.77" waitingTime="2.40" waitingCount="1" stopTime="0.00" timeLoss="12.79" rerouteNo="1" devices="tripinfo_vehicle_78 routing_vehicle_78 emissions_vehicle_78 battery_vehicle_78" vType="human" speedFactor="1.01" vaporized="">
        <emissions CO_abs="0" CO2_abs="0" HC_abs="0" PMx_abs="0" NOx_abs="0" fuel_abs="0" electricity_abs="60.015959"/>
    </tripinfo>
    <tripinfo id="vehicle_13" depart="49.20" departLane="road3_0" departPos="4.10" departPosLat="0.00" departSpeed="1.78" departDelay="30.00" arrival="71.20" arrivalLane="-road2_0" arrivalPos="19.96" arrivalPosLat="0.00" arrivalSpeed="12.45" duration="22.00" routeLength="122.77" waitingTime="2.00" waitingCount="1" stopTime="0.00" timeLoss="11.62" rerouteNo="1" devices="tripinfo_vehicle_13 routing_vehicle_13 emissions_vehicle_13 battery_vehicle_13" vType="human" speedFactor="1.12" vaporized="">
        <emissions CO_abs="0" CO2_abs="0" HC_abs="0" PMx_abs="0" NOx_abs="0" fuel_abs="0" electricity_abs="63.366373"/>
    </tripinfo>
    <tripinfo id="vehicle_40" depart="41.20" departLane="road2_0" departPos="4.10" departPosLat="0.00" departSpeed="1.30" departDelay="30.80" arrival="71.20" arrivalLane="-road0_0" arrivalPos="19.96" arrivalPosLat="0.00" arrivalSpeed="12.40" duration="30.00" routeLength="206.37" waitingTime="0.00" waitingCount="0" stopTime="0.00" timeLoss="13.59" rerouteNo="1" devices="tripinfo_vehicle_40 routing_vehicle_40 emissions_vehicle_40 battery_vehicle_40" vType="human" speedFactor="1.03" vaporized="">
        <emissions CO_abs="0" CO2_abs="0" HC_abs="0" PMx_abs="0" NOx_abs="0" fuel_abs="0" electricity_abs="71.873224"/>
    </tripinfo>
    <tripinfo id="vehicle_46" depart="41.20" departLane="road3_0" departPos="4.10" departPosLat="0.00" departSpeed="2.78" departDelay="22.40" arrival="71.20" arrivalLane="-road1_0" arrivalPos="19.96" arrivalPosLat="0.00" arrivalSpeed="12.84" duration="30.00" routeLength="206.37" waitingTime="0.00" waitingCount="0" stopTime="0.00" timeLoss="13.59" rerouteNo="1" devices="tripinfo_vehicle_46 routing_vehicle_46 emissions_vehicle_46 battery_vehicle_46" vType="human" speedFactor="1.00" vaporized="">
        <emissions CO_abs="0" CO2_abs="0" HC_abs="0" PMx_abs="0" NOx_abs="0" fuel_abs="0" electricity_abs="75.000886"/>
    </tripinfo>
    <tripinfo id="vehicle_19" depart="36.80" departLane="road3_0" departPos="4.10" departPosLat="0.00" departSpeed="2.78" departDelay="18.40" arrival="73.20" arrivalLane="-road0_0" arrivalPos="19.96" arrivalPosLat="0.00" arrivalSpeed="12.90" duration="36.40" routeLength="289.97" waitingTime="0.00" waitingCount="0" stopTime="0.00" timeLoss="14.21" rerouteNo="1" devices="tripinfo_vehicle_19 routing_vehicle_19 emissions_vehicle_19 battery_vehicle_19" vType="human" speedFactor="1.16" vaporized="">
        <emissions CO_abs="0" CO2_abs="0" HC_abs="0" PMx_abs="0" NOx_abs="0" fuel_abs="0" electricity_abs="92.646264"/>
    </tripinfo>
    <tripinfo id="vehicle_38" depart="12.00" departLane="road2_0" departPos="4.10" departPosLat="0.00" departSpeed="1.24" departDelay="2.40" arrival="73.20" arrivalLane="-road3_0" arrivalPos="19.96" arrivalPosLat="0.00" arrivalSpeed="11.36" duration="61.20" routeLength="289.97" waitingTime="23.20" waitingCount="1" stopTime="0.00" timeLoss="39.08" rerouteNo="1" devices="tripinfo_vehicle_38 routing_vehicle_38 emissions_vehicle_38 battery_vehicle_38" vType="human" speedFactor="1.10" vaporized="">
        <emissions CO_abs="0" CO2_abs="0" HC_abs="0" PMx_abs="0" NOx_abs="0" fuel_abs="0" electricity_abs="90.420986"/>
    </tripinfo>
    <tripinfo id="vehicle_63" depart="36.00" departLane="road0_0" departPos="4.10" departPosLat="0.00" departSpeed="2.45" departDelay="20.80" arrival="74.00" arrivalLane="-road1_0" arrivalPos="19.96" arrivalPosLat="0.00" arrivalSpeed="11.64" duration="38.00" routeLength="289.97" waitingTime="0.00" waitingCount="0" stopTime="0.00" timeLoss="15.47" rerouteNo="0" devices="tripinfo_vehicle_63 emissions_vehicle_63 battery_vehicle_63" vType="human" speedFactor="0.99" vaporized="">
        <emissions CO_abs="0" CO2_abs="0" HC_abs="0" PMx_abs="0" NOx_abs="0" fuel_abs="0" electricity_abs="78.441766"/>
    </tripinfo>
    <tripinfo id="vehicle_73" depart="38.80" departLane="road3_0" departPos="4.10" departPosLat="0.00" departSpeed="0.17" departDelay="20.40" arrival="76.00" arrivalLane="-road0_0" arrivalPos="19.96" arrivalPosLat="0.00" arrivalSpeed="12.39" duration="37.20" routeLength="289.97" waitingTime="0.00" waitingCount="0" stopTime="0.00" timeLoss="14.98" rerouteNo="1" devices="tripinfo_vehicle_73 routing_vehicle_73 emissions_vehicle_73 battery_vehicle_73" vType="human" speedFactor="1.06" vaporized="">