<?xml version="1.0" encoding="UTF-8"?>

<!-- generated on 2025-08-10 10:51:37 by Eclipse SUMO sumo Version v1_20_0+0085-e155ab8699b
<configuration xmlns:xsi="http://www.w3.org/2001/XMLSchema-instance" xsi:noNamespaceSchemaLocation="http://sumo.dlr.de/xsd/sumoConfiguration.xsd">

    <input>
        <net-file value="../networks/roundabout.net.xml"/>
        <route-files value="../networks/routes_EIDM.rou.xml"/>
    </input>

    <output>
        <output-prefix value="164-"/>
        <battery-output.precision value="4"/>
        <tripinfo-output value="../networks/output_data/output_eidm/tripinfo/tripinfo-output.xml"/>
        <collision-output value="../networks/output_data/output_eidm/collision/collision-output.xml"/>
    </output>

    <time>
        <begin value="0"/>
        <step-length value="0.4"/>
    </time>

    <processing>
        <step-method.ballistic value="true"/>
        <lateral-resolution value="3.2"/>
        <collision.action value="warn"/>
        <collision.check-junctions value="True"/>
        <collision.mingap-factor value="0"/>
        <time-to-teleport value="-1"/>
        <random-depart-offset value="5"/>
    </processing>

    <report>
        <no-warnings value="True"/>
        <no-step-log value="True"/>
    </report>

    <emissions>
        <device.emissions.probability value="1"/>
    </emissions>

    <battery>
        <device.battery.probability value="1"/>
    </battery>

    <traci_server>
        <remote-port value="50147"/>
    </traci_server>

    <gui_only>
        <quit-on-end value="True"/>
        <start value="True"/>
        <delay value="0"/>
    </gui_only>

</configuration>
-->

<tripinfos xmlns:xsi="http://www.w3.org/2001/XMLSchema-instance" xsi:noNamespaceSchemaLocation="http://sumo.dlr.de/xsd/tripinfo_file.xsd">
    <tripinfo id="vehicle_32" depart="0.00" departLane="road1_0" departPos="4.10" departPosLat="0.00" departSpeed="6.33" departDelay="0.00" arrival="14.00" arrivalLane="-road0_0" arrivalPos="19.96" arrivalPosLat="0.00" arrivalSpeed="12.94" duration="14.00" routeLength="122.77" waitingTime="0.00" waitingCount="0" stopTime="0.00" timeLoss="3.82" rerouteNo="1" devices="tripinfo_vehicle_32 routing_vehicle_32 emissions_vehicle_32 battery_vehicle_32" vType="human" speedFactor="1.01" vaporized="">
        <emissions CO_abs="0" CO2_abs="0" HC_abs="0" PMx_abs="0" NOx_abs="0" fuel_abs="0" electricity_abs="59.193707"/>
    </tripinfo>
    <tripinfo id="vehicle_10" depart="3.20" departLane="road0_0" departPos="4.10" departPosLat="0.00" departSpeed="6.60" departDelay="0.00" arrival="18.00" arrivalLane="-road3_0" arrivalPos="19.96" arrivalPosLat="0.00" arrivalSpeed="11.32" duration="14.80" routeLength="122.77" waitingTime="0.00" waitingCount="0" stopTime="0.00" timeLoss="4.69" rerouteNo="0" devices="tripinfo_vehicle_10 emissions_vehicle_10 battery_vehicle_10" vType="human" speedFactor="1.09" vaporized="">
        <emissions CO_abs="0" CO2_abs="0" HC_abs="0" PMx_abs="0" NOx_abs="0" fuel_abs="0" electricity_abs="46.754386"/>
    </tripinfo>
    <tripinfo id="vehicle_26" depart="1.20" departLane="road1_0" departPos="4.10" departPosLat="0.00" departSpeed="5.28" departDelay="0.00" arrival="18.00" arrivalLane="-road0_0" arrivalPos="19.96" arrivalPosLat="0.00" arrivalSpeed="12.47" duration="16.80" routeLength="122.77" waitingTime="0.00" waitingCount="0" stopTime="0.00" timeLoss="5.54" rerouteNo="1" devices="tripinfo_vehicle_26 routing_vehicle_26 emissions_vehicle_26 battery_vehicle_26" vType="human" speedFactor="0.92" vaporized="">
        <emissions CO_abs="0" CO2_abs="0" HC_abs="0" PMx_abs="0" NOx_abs="0" fuel_abs="0" electricity_abs="54.928886"/>
    </tripinfo>
    <tripinfo id="vehicle_33" depart="6.00" departLane="road3_0" departPos="4.10" departPosLat="0.00" departSpeed="1.73" departDelay="1.60" arrival="22.40" arrivalLane="-road2_0" arrivalPos="19.96" arrivalPosLat="0.00" arrivalSpeed="13.03" duration="16.40" routeLength="122.77" waitingTime="0.00" waitingCount="0" stopTime="0.00" timeLoss="6.33" rerouteNo="1" devices="tripinfo_vehicle_33 routing_vehicle_33 emissions_vehicle_33 battery_vehicle_33" vType="human" speedFactor="1.17" vaporized="">
        <emissions CO_abs="0" CO2_abs="0" HC_abs="0" PMx_abs="0" NOx_abs="0" fuel_abs="0" electricity_abs="71.572656"/>
    </tripinfo>
    <tripinfo id="vehicle_49" depart="5.20" departLane="road1_0" departPos="4.10" departPosLat="0.00" departSpeed="3.55" departDelay="3.20" arrival="24.00" arrivalLane="-road0_0" arrivalPos="19.96" arrivalPosLat="0.00" arrivalSpeed="11.58" duration="18.80" routeLength="122.77" waitingTime="0.00" waitingCount="0" stopTime="0.00" timeLoss="6.38" rerouteNo="1" devices="tripinfo_vehicle_49 routing_vehicle_49 emissions_vehicle_49 battery_vehicle_49" vType="human" speedFactor="0.85" vaporized="">
        <emissions CO_abs="0" CO2_abs="0" HC_abs="0" PMx_abs="0" NOx_abs="0" fuel_abs="0" electricity_abs="51.347003"/>
    </tripinfo>
    <tripinfo id="rl_0" depart="0.80" departLane="road2_0" departPos="4.10" departPosLat="0.00" departSpeed="1.18" departDelay="0.00" arrival="25.60" arrivalLane="-road0_0" arrivalPos="19.96" arrivalPosLat="0.00" arrivalSpeed="7.60" duration="24.80" routeLength="206.37" waitingTime="0.00" waitingCount="0" stopTime="0.00" timeLoss="8.54" rerouteNo="1" devices="tripinfo_rl_0 routing_rl_0 emissions_rl_0 battery_rl_0 driverstaterl_0" vType="rlAnget" speedFactor="1.03" vaporized="">
        <emissions CO_abs="0" CO2_abs="0" HC_abs="0" PMx_abs="0" NOx_abs="0" fuel_abs="0" electricity_abs="57.558480"/>
    </tripinfo>
    <tripinfo id="vehicle_20" depart="4.40" departLane="road3_0" departPos="4.10" departPosLat="0.00" departSpeed="5.40" departDelay="0.00" arrival="26.40" arrivalLane="-road1_0" arrivalPos="19.96" arrivalPosLat="0.00" arrivalSpeed="12.64" duration="22.00" routeLength="206.37" waitingTime="0.00" waitingCount="0" stopTime="0.00" timeLoss="5.74" rerouteNo="1" devices="tripinfo_vehicle_20 routing_vehicle_20 emissions_vehicle_20 battery_vehicle_20" vType="human" speedFactor="1.02" vaporized="">
        <emissions CO_abs="0" CO2_abs="0" HC_abs="0" PMx_abs="0" NOx_abs="0" fuel_abs="0" electricity_abs="80.446544"/>
    </tripinfo>
    <tripinfo id="vehicle_2" depart="10.80" departLane="road0_0" departPos="4.10" departPosLat="0.00" departSpeed="9.75" departDelay="0.00" arrival="27.60" arrivalLane="-road3_0" arrivalPos="19.96" arrivalPosLat="0.00" arrivalSpeed="13.66" duration="16.80" routeLength="122.77" waitingTime="0.00" waitingCount="0" stopTime="0.00" timeLoss="6.18" rerouteNo="0" devices="tripinfo_vehicle_2 emissions_vehicle_2 battery_vehicle_2" vType="human" speedFactor="1.01" vaporized="">
        <emissions CO_abs="0" CO2_abs="0" HC_abs="0" PMx_abs="0" NOx_abs="0" fuel_abs="0" electricity_abs="48.820234"/>
    </tripinfo>
    <tripinfo id="vehicle_79" depart="4.00" departLane="road2_0" departPos="4.10" departPosLat="0.00" departSpeed="0.18" departDelay="0.00" arrival="27.60" arrivalLane="-road0_0" arrivalPos="19.96" arrivalPosLat="0.00" arrivalSpeed="11.65" duration="23.60" routeLength="206.37" waitingTime="0.00" waitingCount="0" stopTime="0.00" timeLoss="7.52" rerouteNo="1" devices="tripinfo_vehicle_79 routing_vehicle_79 emissions_vehicle_79 battery_vehicle_79" vType="human" speedFactor="1.09" vaporized="">
        <emissions CO_abs="0" CO2_abs="0" HC_abs="0" PMx_abs="0" NOx_abs="0" fuel_abs="0" electricity_abs="76.756992"/>
    </tripinfo>
    <tripinfo id="vehicle_25" depart="4.80" departLane="road0_0" departPos="4.10" departPosLat="0.00" departSpeed="5.14" departDelay="0.00" arrival="28.80" arrivalLane="-road2_0" arrivalPos="19.96" arrivalPosLat="0.00" arrivalSpeed="11.81" duration="24.00" routeLength="206.37" waitingTime="0.00" waitingCount="0" stopTime="0.00" timeLoss="5.48" rerouteNo="0" devices="tripinfo_vehicle_25 emissions_vehicle_25 battery_vehicle_25" vType="human" speedFactor="0.87" vaporized="">
        <emissions CO_abs="0" CO2_abs="0" HC_abs="0" PMx_abs="0" NOx_abs="0" fuel_abs="0" electricity_abs="67.877500"/>
    </tripinfo>
    <tripinfo id="vehicle_75" depart="0.40" departLane="road0_0" departPos="4.10" departPosLat="0.00" departSpeed="0.10" departDelay="0.00" arrival="29.60" arrivalLane="-road1_0" arrivalPos="19.96" arrivalPosLat="0.00" arrivalSpeed="12.17" duration="29.20" routeLength="289.97" waitingTime="0.00" waitingCount="0" stopTime="0.00" timeLoss="6.55" rerouteNo="0" devices="tripinfo_vehicle_75 emissions_vehicle_75 battery_vehicle_75" vType="human" speedFactor="0.98" vaporized="">
        <emissions CO_abs="0" CO2_abs="0" HC_abs="0" PMx_abs="0" NOx_abs="0" fuel_abs="0" electricity_abs="101.316372"/>
    </tripinfo>
    <tripinfo id="vehicle_70" depart="12.80" departLane="road0_0" departPos="4.10" departPosLat="0.00" departSpeed="2.15" departDelay="0.40" arrival="31.60" arrivalLane="-road3_0" arrivalPos="19.96" arrivalPosLat="0.00" arrivalSpeed="12.75" duration="18.80" routeLength="122.77" waitingTime="0.00" waitingCount="0" stopTime="0.00" timeLoss="8.50" rerouteNo="0" devices="tripinfo_vehicle_70 emissions_vehicle_70 battery_vehicle_70" vType="human" speedFactor="1.02" vaporized="">
        <emissions CO_abs="0" CO2_abs="0" HC_abs="0" PMx_abs="0" NOx_abs="0" fuel_abs="0" electricity_abs="64.917141"/>
    </tripinfo>
    <tripinfo id="vehicle_41" depart="3.60" departLane="road3_0" departPos="4.10" departPosLat="0.00" departSpeed="9.75" departDelay="0.00" arrival="32.40" arrivalLane="-road0_0" arrivalPos="19.96" arrivalPosLat="0.00" arrivalSpeed="12.16" duration="28.80" routeLength="289.97" waitingTime="0.00" waitingCount="0" stopTime="0.00" timeLoss="5.89" rerouteNo="1" devices="tripinfo_vehicle_41 routing_vehicle_41 emissions_vehicle_41 battery_vehicle_41" vType="human" speedFactor="0.96" vaporized="">
        <emissions CO_abs="0" CO2_abs="0" HC_abs="0" PMx_abs="0" NOx_abs="0" fuel_abs="0" electricity_abs="75.867863"/>
    </tripinfo>
    <tripinfo id="vehicle_71" depart="9.60" departLane="road2_0" departPos="4.10" departPosLat="0.00" departSpeed="2.26" departDelay="0.00" arrival="34.00" arrivalLane="-road1_0" arrivalPos="19.96" arrivalPosLat="0.00" arrivalSpeed="11.76" duration="24.40" routeLength="122.77" waitingTime="2.80" waitingCount="1" stopTime="0.00" timeLoss="14.07" rerouteNo="1" devices="tripinfo_vehicle_71 routing_vehicle_71 emissions_vehicle_71 battery_vehicle_71" vType="human" speedFactor="0.97" vaporized="">
        <emissions CO_abs="0" CO2_abs="0" HC_abs="0" PMx_abs="0" NOx_abs="0" fuel_abs="0" electricity_abs="55.628436"/>
    </tripinfo>
    <tripinfo id="vehicle_78" depart="9.20" departLane="road1_0" departPos="4.10" departPosLat="0.00" departSpeed="2.05" departDelay="3.60" arrival="34.80" arrivalLane="-road0_0" arrivalPos="19.96" arrivalPosLat="0.00" arrivalSpeed="13.09" duration="25.60" routeLength="122.77" waitingTime="1.60" waitingCount="1" stopTime="0.00" timeLoss="14.96" rerouteNo="1" devices="tripinfo_vehicle_78 routing_vehicle_78 emissions_vehicle_78 battery_vehicle_78" vType="human" speedFactor="1.01" vaporized="">
        <emissions CO_abs="0" CO2_abs="0" HC_abs="0" PMx_abs="0" NOx_abs="0" fuel_abs="0" electricity_abs="61.332656"/>
    </tripinfo>
    <tripinfo id="vehicle_48" depart="2.80" departLane="road1_0" departPos="4.10" departPosLat="0.00" departSpeed="2.48" departDelay="1.60" arrival="35.20" arrivalLane="-road2_0" arrivalPos="19.96" arrivalPosLat="0.00" arrivalSpeed="10.63" duration="32.40" routeLength="289.97" waitingTime="0.00" waitingCount="0" stopTime="0.00" timeLoss="7.19" rerouteNo="1" devices="tripinfo_vehicle_48 routing_vehicle_48 emissions_vehicle_48 battery_vehicle_48" vType="human" speedFactor="0.88" vaporized="">
        <emissions CO_abs="0" CO2_abs="0" HC_abs="0" PMx_abs="0" NOx_abs="0" fuel_abs="0" electricity_abs="82.094431"/>
    </tripinfo>
    <tripinfo id="vehicle_73" depart="12.00" departLane="road1_0" departPos="4.10" departPosLat="0.00" departSpeed="1.53" departDelay="6.00" arrival="36.80" arrivalLane="-road0_0" arrivalPos="19.96" arrivalPosLat="0.00" arrivalSpeed="13.23" duration="24.80" routeLength="122.77" waitingTime="0.00" waitingCount="0" stopTime="0.00" timeLoss="14.35" rerouteNo="1" devices="tripinfo_vehicle_73 routing_vehicle_73 emissions_vehicle_73 battery_vehicle_73" vType="human" speedFactor="1.06" vaporized="">
        <emissions CO_abs="0" CO2_abs="0" HC_abs="0" PMx_abs="0" NOx_abs="0" fuel_abs="0" electricity_abs="63.251271"/>
    </tripinfo>
    <tripinfo id="vehicle_37" depart="11.60" departLane="road0_0" departPos="4.10" departPosLat="0.00" departSpeed="5.40" departDelay="0.40" arrival="37.60" arrivalLane="-road2_0" arrivalPos="19.96" arrivalPosLat="0.00" arrivalSpeed="13.29" duration="26.00" routeLength="206.37" waitingTime="0.00" waitingCount="0" stopTime="0.00" timeLoss="9.79" rerouteNo="0" devices="tripinfo_vehicle_37 emissions_vehicle_37 battery_vehicle_37" vType="human" speedFactor="1.18" vaporized="">
        <emissions CO_abs="0" CO2_abs="0" HC_abs="0" PMx_abs="0" NOx_abs="0" fuel_abs="0" electricity_abs="82.100440"/>
    </tripinfo>
    <tripinfo id="vehicle_29" depart="6.00" departLane="road2_0" departPos="4.10" departPosLat="0.00" departSpeed="3.44" departDelay="0.40" arrival="39.60" arrivalLane="-road3_0" arrivalPos="19.96" arrivalPosLat="0.00" arrivalSpeed="12.99" duration="33.60" routeLength="289.97" waitingTime="0.00" waitingCount="0" stopTime="0.00" timeLoss="9.47" rerouteNo="1" devices="tripinfo_vehicle_29 routing_vehicle_29 emissions_vehicle_29 battery_vehicle_29" vType="human" speedFactor="0.93" vaporized="">
        <emissions CO_abs="0" CO2_abs="0" HC_abs="0" PMx_abs="0" NOx_abs="0" fuel_abs="0" electricity_abs="97.901537"/>
    </tripinfo>
    <tripinfo id="vehicle_5" depart="7.20" departLane="road1_0" departPos="4.10" departPosLat="0.00" departSpeed="3.48" departDelay="4.40" arrival="42.40" arrivalLane="-road3_0" arrivalPos="19.96" arrivalPosLat="0.00" arrivalSpeed="10.99" duration="35.20" routeLength="206.37" waitingTime="3.20" waitingCount="2" stopTime="0.00" timeLoss="15.50" rerouteNo="1" devices="tripinfo_vehicle_5 routing_vehicle_5 emissions_vehicle_5 battery_vehicle_5" vType="human" speedFactor="0.83" vaporized="">
        <emissions CO_abs="0" CO2_abs="0" HC_abs="0" PMx_abs="0" NOx_abs="0" fuel_abs="0" electricity_abs="59.947513"/>
    </tripinfo>
    <tripinfo id="vehicle_72" depart="17.60" departLane="road0_0" departPos="4.10" departPosLat="0.00" departSpeed="3.22" departDelay="0.00" arrival="42.40" arrivalLane="-road2_0" arrivalPos="19.96" arrivalPosLat="0.00" arrivalSpeed="13.05" duration="24.80" routeLength="206.37" waitingTime="0.00" waitingCount="0" stopTime="0.00" timeLoss="7.26" rerouteNo="0" devices="tripinfo_vehicle_72 emissions_vehicle_72 battery_vehicle_72" vType="human" speedFactor="0.94" vaporized="">
        <emissions CO_abs="0" CO2_abs="0" HC_abs="0" PMx_abs="0" NOx_abs="0" fuel_abs="0" electricity_abs="79.829288"/>
    </tripinfo>
    <tripinfo id="vehicle_53" depart="26.40" departLane="road2_0" departPos="4.10" departPosLat="0.00" departSpeed="2.78" departDelay="10.80" arrival="42.80" arrivalLane="-road1_0" arrivalPos="19.96" arrivalPosLat="0.00" arrivalSpeed="12.39" duration="16.40" routeLength="122.77" waitingTime="0.00" waitingCount="0" stopTime="0.00" timeLoss="6.16" rerouteNo="1" devices="tripinfo_vehicle_53 routing_vehicle_53 emissions_vehicle_53 battery_vehicle_53" vType="human" speedFactor="1.10" vaporized="">
        <emissions CO_abs="0" CO2_abs="0" HC_abs="0" PMx_abs="0" NOx_abs="0" fuel_abs="0" electricity_abs="60.390097"/>
    </tripinfo>
    <tripinfo id="vehicle_76" depart="20.00" departLane="road2_0" departPos="4.10" departPosLat="0.00" departSpeed="1.23" departDelay="8.80" arrival="44.00" arrivalLane="-road0_0" arrivalPos="19.96" arrivalPosLat="0.00" arrivalSpeed="12.73" duration="24.00" routeLength="206.37" waitingTime="0.00" waitingCount="0" stopTime="0.00" timeLoss="7.47" rerouteNo="1" devices="tripinfo_vehicle_76 routing_vehicle_76 emissions_vehicle_76 battery_vehicle_76" vType="human" speedFactor="1.03" vaporized="">
        <emissions CO_abs="0" CO2_abs="0" HC_abs="0" PMx_abs="0" NOx_abs="0" fuel_abs="0" electricity_abs="84.622869"/>
    </tripinfo>
    <tripinfo id="vehicle_63" depart="7.60" departLane="road2_0" departPos="4.10" departPosLat="0.00" departSpeed="3.70" departDelay="0.00" arrival="46.00" arrivalLane="-road3_0" arrivalPos="19.96" arrivalPosLat="0.00" arrivalSpeed="12.36" duration="38.40" routeLength="289.97" waitingTime="4.40" waitingCount="1" stopTime="0.00" timeLoss="16.10" rerouteNo="1" devices="tripinfo_vehicle_63 routing_vehicle_63 emissions_vehicle_63 battery_vehicle_63" vType="human" speedFactor="0.99" vaporized="">
        <emissions CO_abs="0" CO2_abs="0" HC_abs="0" PMx_abs="0" NOx_abs="0" fuel_abs="0" electricity_abs="97.341708"/>
    </tripinfo>
    <tripinfo id="vehicle_57" depart="12.00" departLane="road2_0" departPos="4.10" departPosLat="0.00" departSpeed="0.73" departDelay="2.00" arrival="48.40" arrivalLane="-road3_0" arrivalPos="19.96" arrivalPosLat="0.00" arrivalSpeed="12.05" duration="36.40" routeLength="289.97" waitingTime="2.00" waitingCount="1" stopTime="0.00" timeLoss="14.28" rerouteNo="1" devices="tripinfo_vehicle_57 routing_vehicle_57 emissions_vehicle_57 battery_vehicle_57" vType="human" speedFactor="1.14" vaporized="">
        <emissions CO_abs="0" CO2_abs="0" HC_abs="0" PMx_abs="0" NOx_abs="0" fuel_abs="0" electricity_abs="100.569796"/>
    </tripinfo>
    <tripinfo id="vehicle_24" depart="8.40" departLane="road3_0" departPos="4.10" departPosLat="0.00" departSpeed="3.00" departDelay="3.60" arrival="48.80" arrivalLane="-road2_0" arrivalPos="19.96" arrivalPosLat="0.00" arrivalSpeed="10.47" duration="40.40" routeLength="122.77" waitingTime="19.20" waitingCount="1" stopTime="0.00" timeLoss="27.94" rerouteNo="1" devices="tripinfo_vehicle_24 routing_vehicle_24 emissions_vehicle_24 battery_vehicle_24" vType="human" speedFactor="0.83" vaporized="">
        <emissions CO_abs="0" CO2_abs="0" HC_abs="0" PMx_abs="0" NOx_abs="0" fuel_abs="0" electricity_abs="46.843537"/>
    </tripinfo>
    <tripinfo id="vehicle_23" depart="10.80" departLane="road3_0" departPos="4.10" departPosLat="0.00" departSpeed="1.13" departDelay="4.00" arrival="51.60" arrivalLane="-road2_0" arrivalPos="19.96" arrivalPosLat="0.00" arrivalSpeed="10.86" duration="40.80" routeLength="122.77" waitingTime="18.40" waitingCount="1" stopTime="0.00" timeLoss="29.23" rerouteNo="1" devices="tripinfo_vehicle_23 routing_vehicle_23 emissions_vehicle_23 battery_vehicle_23" vType="human" speedFactor="0.89" vaporized="">
        <emissions CO_abs="0" CO2_abs="0" HC_abs="0" PMx_abs="0" NOx_abs="0" fuel_abs="0" electricity_abs="51.292036"/>
    </tripinfo>
    <tripinfo id="vehicle_59" depart="19.60" departLane="road0_0" departPos="4.10" departPosLat="0.00" departSpeed="3.09" departDelay="1.60" arrival="52.40" arrivalLane="-road1_0" arrivalPos="19.96" arrivalPosLat="0.00" arrivalSpeed="13.07" duration="32.80" routeLength="289.97" waitingTime="0.00" waitingCount="0" stopTime="0.00" timeLoss="9.93" rerouteNo="0" devices="tripinfo_vehicle_59 emissions_vehicle_59 battery_vehicle_59" vType="human" speedFactor="0.97" vaporized="">
        <emissions CO_abs="0" CO2_abs="0" HC_abs="0" PMx_abs="0" NOx_abs="0" fuel_abs="0" electricity_abs="98.096537"/>
    </tripinfo>
    <tripinfo id="vehicle_54" depart="28.40" departLane="road2_0" departPos="4.10" departPosLat="0.00" departSpeed="0.35" departDelay="9.60" arrival="53.20" arrivalLane="-road0_0" arrivalPos="19.96" arrivalPosLat="0.00" arrivalSpeed="13.11" duration="24.80" routeLength="206.37" waitingTime="0.00" waitingCount="0" stopTime="0.00" timeLoss="8.49" rerouteNo="1" devices="tripinfo_vehicle_54 routing_vehicle_54 emissions_vehicle_54 battery_vehicle_54" vType="human" speedFactor="1.00" vaporized="">
        <emissions CO_abs="0" CO2_abs="0" HC_abs="0" PMx_abs="0" NOx_abs="0" fuel_abs="0" electricity_abs="85.883329"/>
    </tripinfo>
    <tripinfo id="vehicle_56" depart="22.40" departLane="road2_0" departPos="4.10" departPosLat="0.00" departSpeed="2.19" departDelay="10.80" arrival="53.60" arrivalLane="-road3_0" arrivalPos="19.96" arrivalPosLat="0.00" arrivalSpeed="12.33" duration="31.20" routeLength="289.97" waitingTime="0.00" waitingCount="0" stopTime="0.00" timeLoss="6.41" rerouteNo="1" devices="tripinfo_vehicle_56 routing_vehicle_56 emissions_vehicle_56 battery_vehicle_56" vType="human" speedFactor="0.90" vaporized="">
        <emissions CO_abs="0" CO2_abs="0" HC_abs="0" PMx_abs="0" NOx_abs="0" fuel_abs="0" electricity_abs="94.070857"/>
    </tripinfo>
    <tripinfo id="vehicle_44" depart="39.60" departLane="road3_0" departPos="4.10" departPosLat="0.00" departSpeed="2.49" departDelay="22.40" arrival="56.00" arrivalLane="-road2_0" arrivalPos="19.96" arrivalPosLat="0.00" arrivalSpeed="12.74" duration="16.40" routeLength="122.77" waitingTime="0.00" waitingCount="0" stopTime="0.00" timeLoss="6.28" rerouteNo="1" devices="tripinfo_vehicle_44 routing_vehicle_44 emissions_vehicle_44 battery_vehicle_44" vType="human" speedFactor="1.04" vaporized="">
        <emissions CO_abs="0" CO2_abs="0" HC_abs="0" PMx_abs="0" NOx_abs="0" fuel_abs="0" electricity_abs="64.908020"/>
    </tripinfo>
    <tripinfo id="vehicle_65" depart="30.80" departLane="road2_0" departPos="4.10" departPosLat="0.00" departSpeed="1.23" departDelay="9.20" arrival="56.40" arrivalLane="-road0_0" arrivalPos="19.96" arrivalPosLat="0.00" arrivalSpeed="12.12" duration="25.60" routeLength="206.37" waitingTime="0.00" waitingCount="0" stopTime="0.00" timeLoss="6.92" rerouteNo="1" devices="tripinfo_vehicle_65 routing_vehicle_65 emissions_vehicle_65 battery_vehicle_65" vType="human" speedFactor="0.88" vaporized="">
        <emissions CO_abs="0" CO2_abs="0" HC_abs="0" PMx_abs="0" NOx_abs="0" fuel_abs="0" electricity_abs="74.800843"/>
    </tripinfo>
    <tripinfo id="vehicle_50" depart="24.40" departLane="road2_0" departPos="4.10" departPosLat="0.00" departSpeed="2.92" departDelay="10.40" arrival="57.20" arrivalLane="-road3_0" arrivalPos="19.96" arrivalPosLat="0.00" arrivalSpeed="10.68" duration="32.80" routeLength="289.97" waitingTime="0.00" waitingCount="0" stopTime="0.00" timeLoss="6.76" rerouteNo="1" devices="tripinfo_vehicle_50 routing_vehicle_50 emissions_vehicle_50 battery_vehicle_50" vType="human" speedFactor="0.85" vaporized="">
        <emissions CO_abs="0" CO2_abs="0" HC_abs="0" PMx_abs="0" NOx_abs="0" fuel_abs="0" electricity_abs="81.838030"/>
    </tripinfo>
    <tripinfo id="vehicle_68" depart="18.80" departLane="road1_0" departPos="4.10" departPosLat="0.00" departSpeed="0.98" departDelay="10.80" arrival="59.20" arrivalLane="-road0_0" arrivalPos="19.96" arrivalPosLat="0.00" arrivalSpeed="12.24" duration="40.40" routeLength="122.77" waitingTime="20.40" waitingCount="1" stopTime="0.00" timeLoss="30.25" rerouteNo="1" devices="tripinfo_vehicle_68 routing_vehicle_68 emissions_vehicle_68 battery_vehicle_68" vType="human" speedFactor="1.04" vaporized="">
        <emissions CO_abs="0" CO2_abs="0" HC_abs="0" PMx_abs="0" NOx_abs="0" fuel_abs="0" electricity_abs="63.112149"/>
    </tripinfo>
    <tripinfo id="vehicle_30" depart="21.60" departLane="road0_0" departPos="4.10" departPosLat="0.00" departSpeed="3.06" departDelay="2.40" arrival="59.60" arrivalLane="-road3_0" arrivalPos="19.96" arrivalPosLat="0.00" arrivalSpeed="12.81" duration="38.00" routeLength="122.77" waitingTime="18.40" waitingCount="1" stopTime="0.00" timeLoss="27.81" rerouteNo="0" devices="tripinfo_vehicle_30 emissions_vehicle_30 battery_vehicle_30" vType="human" speedFactor="1.18" vaporized="">
        <emissions CO_abs="0" CO2_abs="0" HC_abs="0" PMx_abs="0" NOx_abs="0" fuel_abs="0" electricity_abs="64.628387"/>
    </tripinfo>
    <tripinfo id="vehicle_36" depart="36.80" departLane="road3_0" departPos="4.10" departPosLat="0.00" departSpeed="1.39" departDelay="26.40" arrival="61.20" arrivalLane="-road1_0" arrivalPos="19.96" arrivalPosLat="0.00" arrivalSpeed="12.13" duration="24.40" routeLength="206.37" waitingTime="0.00" waitingCount="0" stopTime="0.00" timeLoss="7.76" rerouteNo="1" devices="tripinfo_vehicle_36 routing_vehicle_36 emissions_vehicle_36 battery_vehicle_36" vType="human" speedFactor="0.97" vaporized="">
        <emissions CO_abs="0" CO2_abs="0" HC_abs="0" PMx_abs="0" NOx_abs="0" fuel_abs="0" electricity_abs="81.276521"/>
    </tripinfo>
    <tripinfo id="vehicle_6" depart="46.40" departLane="road3_0" departPos="4.10" departPosLat="0.00" departSpeed="4.03" departDelay="25.20" arrival="63.20" arrivalLane="-road2_0" arrivalPos="19.96" arrivalPosLat="0.00" arrivalSpeed="12.43" duration="16.80" routeLength="122.77" waitingTime="0.00" waitingCount="0" stopTime="0.00" timeLoss="6.57" rerouteNo="1" devices="tripinfo_vehicle_6 routing_vehicle_6 emissions_vehicle_6 battery_vehicle_6" vType="human" speedFactor="1.05" vaporized="">
        <emissions CO_abs="0" CO2_abs="0" HC_abs="0" PMx_abs="0" NOx_abs="0" fuel_abs="0" electricity_abs="57.637123"/>
    </tripinfo>
    <tripinfo id="vehicle_8" depart="14.00" departLane="road3_0" departPos="4.10" departPosLat="0.00" departSpeed="1.43" departDelay="4.40" arrival="66.80" arrivalLane="-road0_0" arrivalPos="19.96" arrivalPosLat="0.00" arrivalSpeed="12.96" duration="52.80" routeLength="289.97" waitingTime="18.00" waitingCount="1" stopTime="0.00" timeLoss="28.64" rerouteNo="1" devices="tripinfo_vehicle_8 routing_vehicle_8 emissions_vehicle_8 battery_vehicle_8" vType="human" speedFactor="0.94" vaporized="">
        <emissions CO_abs="0" CO2_abs="0" HC_abs="0" PMx_abs="0" NOx_abs="0" fuel_abs="0" electricity_abs="102.589514"/>
    </tripinfo>
    <tripinfo id="vehicle_9" depart="22.00" departLane="road1_0" departPos="4.10" departPosLat="0.00" departSpeed="2.84" departDelay="12.80" arrival="70.40" arrivalLane="-road3_0" arrivalPos="19.96" arrivalPosLat="0.00" arrivalSpeed="11.71" duration="48.40" routeLength="206.37" waitingTime="19.20" waitingCount="1" stopTime="0.00" timeLoss="29.38" rerouteNo="1" devices="tripinfo_vehicle_9 routing_vehicle_9 emissions_vehicle_9 battery_vehicle_9" vType="human" speedFactor="0.86" vaporized="">
        <emissions CO_abs="0" CO2_abs="0" HC_abs="0" PMx_abs="0" NOx_abs="0" fuel_abs="0" electricity_abs="70.622302"/>
    </tripinfo>
    <tripinfo id="vehicle_7" depart="23.60" departLane="road0_0" departPos="4.10" departPosLat="0.00" departSpeed="2.32" departDelay="0.40" arrival="70.80" arrivalLane="-road2_0" arrivalPos="19.96" arrivalPosLat="0.00" arrivalSpeed="11.95" duration="47.20" routeLength="206.37" waitingTime="17.60" waitingCount="1" stopTime="0.00" timeLoss="28.48" rerouteNo="0" devices="tripinfo_vehicle_7 emissions_vehicle_7 battery_vehicle_7" vType="human" speedFactor="0.89" vaporized="">
        <emissions CO_abs="0" CO2_abs="0" HC_abs="0" PMx_abs="0" NOx_abs="0" fuel_abs="0" electricity_abs="72.482135"/>
    </tripinfo>
    <tripinfo id="vehicle_34" depart="51.20" departLane="road1_0" departPos="4.10" departPosLat="0.00" departSpeed="2.99" departDelay="41.60" arrival="71.20" arrivalLane="-road0_0" arrivalPos="19.96" arrivalPosLat="0.00" arrivalSpeed="12.56" duration="20.00" routeLength="122.77" waitingTime="0.00" waitingCount="0" stopTime="0.00" timeLoss="9.60" rerouteNo="1" devices="tripinfo_vehicle_34 routing_vehicle_34 emissions_vehicle_34 battery_vehicle_34" vType="human" speedFactor="0.99" vaporized="">
        <emissions CO_abs="0" CO2_abs="0" HC_abs="0" PMx_abs="0" NOx_abs="0" fuel_abs="0" electricity_abs="57.521198"/>
    </tripinfo>
    <tripinfo id="vehicle_38" depart="48.00" departLane="road3_0" departPos="4.10" departPosLat="0.00" departSpeed="2.73" departDelay="23.60" arrival="72.40" arrivalLane="-road1_0" arrivalPos="19.96" arrivalPosLat="0.00" arrivalSpeed="12.18" duration="24.40" routeLength="206.37" waitingTime="0.00" waitingCount="0" stopTime="0.00" timeLoss="8.12" rerouteNo="1" devices="tripinfo_vehicle_38 routing_vehicle_38 emissions_vehicle_38 battery_vehicle_38" vType="human" speedFactor="1.10" vaporized="">
        <emissions CO_abs="0" CO2_abs="0" HC_abs="0" PMx_abs="0" NOx_abs="0" fuel_abs="0" electricity_abs="79.218307"/>
    </tripinfo>
    <tripinfo id="vehicle_39" depart="24.00" departLane="road1_0" departPos="4.10" departPosLat="0.00" departSpeed="1.48" departDelay="14.80" arrival="72.80" arrivalLane="-road3_0" arrivalPos="19.96" arrivalPosLat="0.00" arrivalSpeed="11.28" duration="48.80" routeLength="206.37" waitingTime="18.40" waitingCount="1" stopTime="0.00" timeLoss="30.52" rerouteNo="1" devices="tripinfo_vehicle_39 routing_vehicle_39 emissions_vehicle_39 battery_vehicle_39" vType="human" speedFactor="0.90" vaporized="">
        <emissions CO_abs="0" CO2_abs="0" HC_abs="0" PMx_abs="0" NOx_abs="0" fuel_abs="0" electricity_abs="69.284829"/>
    </tripinfo>
    <tripinfo id="vehicle_43" depart="26.00" departLane="road0_0" departPos="4.10" departPosLat="0.00" departSpeed="1.72" departDelay="2.80" arrival="73.20" arrivalLane="-road2_0" arrivalPos="19.96" arrivalPosLat="0.00" arrivalSpeed="12.52" duration="47.20" routeLength="206.37" waitingTime="17.20" waitingCount="1" stopTime="0.00" timeLoss="30.70" rerouteNo="0" devices="tripinfo_vehicle_43 emissions_vehicle_43 battery_vehicle_43" vType="human" speedFactor="1.04" vaporized="">
        <emissions CO_abs="0" CO2_abs="0" HC_abs="0" PMx_abs="0" NOx_abs="0" fuel_abs="0" electricity_abs="75.899410"/>
    </tripinfo>
    <tripinfo id="vehicle_62" depart="51.20" departLane="road0_0" departPos="4.10" departPosLat="0.00" departSpeed="3.28" departDelay="22.00" arrival="75.60" arrivalLane="-road2_0" arrivalPos="19.96" arrivalPosLat="0.00" arrivalSpeed="12.02" duration="24.40" routeLength="206.37" waitingTime="0.00" waitingCount="0" stopTime="0.00" timeLoss="7.86" rerouteNo="0" devices="tripinfo_vehicle_62 emissions_vehicle_62 battery_vehicle_62" vType="human" speedFactor="1.02" vaporized="">