<?xml version="1.0" encoding="UTF-8"?>

<!-- generated on 2025-08-10 10:52:09 by Eclipse SUMO sumo Version v1_20_0+0085-e155ab8699b
<configuration xmlns:xsi="http://www.w3.org/2001/XMLSchema-instance" xsi:noNamespaceSchemaLocation="http://sumo.dlr.de/xsd/sumoConfiguration.xsd">

    <input>
        <net-file value="../networks/roundabout.net.xml"/>
        <route-files value="../networks/routes_EIDM.rou.xml"/>
    </input>

    <output>
        <output-prefix value="190-"/>
        <battery-output.precision value="4"/>
        <tripinfo-output value="../networks/output_data/output_eidm/tripinfo/tripinfo-output.xml"/>
        <collision-output value="../networks/output_data/output_eidm/collision/collision-output.xml"/>
    </output>

    <time>
        <begin value="0"/>
        <step-length value="0.4"/>
    </time>

    <processing>
        <step-method.ballistic value="true"/>
        <lateral-resolution value="3.2"/>
        <collision.action value="warn"/>
        <collision.check-junctions value="True"/>
        <collision.mingap-factor value="0"/>
        <time-to-teleport value="-1"/>
        <random-depart-offset value="5"/>
    </processing>

    <report>
        <no-warnings value="True"/>
        <no-step-log value="True"/>
    </report>

    <emissions>
        <device.emissions.probability value="1"/>
    </emissions>

    <battery>
        <device.battery.probability value="1"/>
    </battery>

    <traci_server>
        <remote-port value="57027"/>
    </traci_server>

    <gui_only>
        <quit-on-end value="True"/>
        <start value="True"/>
        <delay value="0"/>
    </gui_only>

</configuration>
-->

<tripinfos xmlns:xsi="http://www.w3.org/2001/XMLSchema-instance" xsi:noNamespaceSchemaLocation="http://sumo.dlr.de/xsd/tripinfo_file.xsd">
    <tripinfo id="vehicle_18" depart="1.60" departLane="road2_0" departPos="4.10" departPosLat="0.00" departSpeed="5.15" departDelay="0.80" arrival="17.60" arrivalLane="-road1_0" arrivalPos="19.96" arrivalPosLat="0.00" arrivalSpeed="12.80" duration="16.00" routeLength="122.77" waitingTime="0.00" waitingCount="0" stopTime="0.00" timeLoss="4.81" rerouteNo="1" devices="tripinfo_vehicle_18 routing_vehicle_18 emissions_vehicle_18 battery_vehicle_18" vType="human" speedFactor="0.94" vaporized="">
        <emissions CO_abs="0" CO2_abs="0" HC_abs="0" PMx_abs="0" NOx_abs="0" fuel_abs="0" electricity_abs="59.100233"/>
    </tripinfo>
    <tripinfo id="vehicle_45" depart="4.80" departLane="road0_0" departPos="4.10" departPosLat="0.00" departSpeed="3.69" departDelay="4.00" arrival="20.00" arrivalLane="-road3_0" arrivalPos="19.96" arrivalPosLat="0.00" arrivalSpeed="11.61" duration="15.20" routeLength="122.77" waitingTime="0.00" waitingCount="0" stopTime="0.00" timeLoss="5.17" rerouteNo="0" devices="tripinfo_vehicle_45 emissions_vehicle_45 battery_vehicle_45" vType="human" speedFactor="1.09" vaporized="">
        <emissions CO_abs="0" CO2_abs="0" HC_abs="0" PMx_abs="0" NOx_abs="0" fuel_abs="0" electricity_abs="57.765980"/>
    </tripinfo>
    <tripinfo id="vehicle_35" depart="4.80" departLane="road2_0" departPos="4.10" departPosLat="0.00" departSpeed="0.18" departDelay="1.60" arrival="21.20" arrivalLane="-road1_0" arrivalPos="19.96" arrivalPosLat="0.00" arrivalSpeed="12.34" duration="16.40" routeLength="122.77" waitingTime="0.00" waitingCount="0" stopTime="0.00" timeLoss="5.78" rerouteNo="1" devices="tripinfo_vehicle_35 routing_vehicle_35 emissions_vehicle_35 battery_vehicle_35" vType="human" speedFactor="1.02" vaporized="">
        <emissions CO_abs="0" CO2_abs="0" HC_abs="0" PMx_abs="0" NOx_abs="0" fuel_abs="0" electricity_abs="63.843244"/>
    </tripinfo>
    <tripinfo id="vehicle_29" depart="0.40" departLane="road2_0" departPos="4.10" departPosLat="0.00" departSpeed="5.94" departDelay="0.00" arrival="23.20" arrivalLane="-road0_0" arrivalPos="19.96" arrivalPosLat="0.00" arrivalSpeed="12.02" duration="22.80" routeLength="206.37" waitingTime="0.00" waitingCount="0" stopTime="0.00" timeLoss="5.39" rerouteNo="1" devices="tripinfo_vehicle_29 routing_vehicle_29 emissions_vehicle_29 battery_vehicle_29" vType="human" speedFactor="0.93" vaporized="">
        <emissions CO_abs="0" CO2_abs="0" HC_abs="0" PMx_abs="0" NOx_abs="0" fuel_abs="0" electricity_abs="69.414269"/>
    </tripinfo>
    <tripinfo id="vehicle_37" depart="2.80" departLane="road0_0" departPos="4.10" departPosLat="0.00" departSpeed="0.16" departDelay="2.00" arrival="23.60" arrivalLane="-road2_0" arrivalPos="19.96" arrivalPosLat="0.00" arrivalSpeed="13.69" duration="20.80" routeLength="206.37" waitingTime="0.00" waitingCount="0" stopTime="0.00" timeLoss="4.68" rerouteNo="0" devices="tripinfo_vehicle_37 emissions_vehicle_37 battery_vehicle_37" vType="human" speedFactor="1.18" vaporized="">
        <emissions CO_abs="0" CO2_abs="0" HC_abs="0" PMx_abs="0" NOx_abs="0" fuel_abs="0" electricity_abs="97.568868"/>
    </tripinfo>
    <tripinfo id="vehicle_71" depart="4.40" departLane="road3_0" departPos="4.10" departPosLat="0.00" departSpeed="5.40" departDelay="0.80" arrival="27.20" arrivalLane="-road1_0" arrivalPos="19.96" arrivalPosLat="0.00" arrivalSpeed="11.76" duration="22.80" routeLength="206.37" waitingTime="0.00" waitingCount="0" stopTime="0.00" timeLoss="6.01" rerouteNo="1" devices="tripinfo_vehicle_71 routing_vehicle_71 emissions_vehicle_71 battery_vehicle_71" vType="human" speedFactor="0.97" vaporized="">
        <emissions CO_abs="0" CO2_abs="0" HC_abs="0" PMx_abs="0" NOx_abs="0" fuel_abs="0" electricity_abs="72.411242"/>
    </tripinfo>
    <tripinfo id="vehicle_2" depart="0.80" departLane="road0_0" departPos="4.10" departPosLat="0.00" departSpeed="0.10" departDelay="0.00" arrival="29.60" arrivalLane="-road1_0" arrivalPos="19.96" arrivalPosLat="0.00" arrivalSpeed="13.03" duration="28.80" routeLength="289.97" waitingTime="0.00" waitingCount="0" stopTime="0.00" timeLoss="6.39" rerouteNo="0" devices="tripinfo_vehicle_2 emissions_vehicle_2 battery_vehicle_2" vType="human" speedFactor="1.01" vaporized="">
        <emissions CO_abs="0" CO2_abs="0" HC_abs="0" PMx_abs="0" NOx_abs="0" fuel_abs="0" electricity_abs="108.669970"/>
    </tripinfo>
    <tripinfo id="vehicle_44" depart="6.40" departLane="road0_0" departPos="4.10" departPosLat="0.00" departSpeed="3.24" departDelay="4.80" arrival="30.00" arrivalLane="-road2_0" arrivalPos="19.96" arrivalPosLat="0.00" arrivalSpeed="11.79" duration="23.60" routeLength="206.37" waitingTime="0.00" waitingCount="0" stopTime="0.00" timeLoss="7.10" rerouteNo="0" devices="tripinfo_vehicle_44 emissions_vehicle_44 battery_vehicle_44" vType="human" speedFactor="1.04" vaporized="">
        <emissions CO_abs="0" CO2_abs="0" HC_abs="0" PMx_abs="0" NOx_abs="0" fuel_abs="0" electricity_abs="77.053863"/>
    </tripinfo>
    <tripinfo id="vehicle_67" depart="12.80" departLane="road0_0" departPos="4.10" departPosLat="0.00" departSpeed="1.67" departDelay="6.40" arrival="30.00" arrivalLane="-road3_0" arrivalPos="19.96" arrivalPosLat="0.00" arrivalSpeed="11.52" duration="17.20" routeLength="122.77" waitingTime="0.00" waitingCount="0" stopTime="0.00" timeLoss="5.96" rerouteNo="0" devices="tripinfo_vehicle_67 emissions_vehicle_67 battery_vehicle_67" vType="human" speedFactor="0.91" vaporized="">
        <emissions CO_abs="0" CO2_abs="0" HC_abs="0" PMx_abs="0" NOx_abs="0" fuel_abs="0" electricity_abs="56.644775"/>
    </tripinfo>
    <tripinfo id="vehicle_58" depart="3.60" departLane="road3_0" departPos="4.10" departPosLat="0.00" departSpeed="9.75" departDelay="0.00" arrival="30.80" arrivalLane="-road0_0" arrivalPos="19.96" arrivalPosLat="0.00" arrivalSpeed="13.52" duration="27.20" routeLength="289.97" waitingTime="0.00" waitingCount="0" stopTime="0.00" timeLoss="4.74" rerouteNo="1" devices="tripinfo_vehicle_58 routing_vehicle_58 emissions_vehicle_58 battery_vehicle_58" vType="human" speedFactor="1.02" vaporized="">
        <emissions CO_abs="0" CO2_abs="0" HC_abs="0" PMx_abs="0" NOx_abs="0" fuel_abs="0" electricity_abs="91.482741"/>
    </tripinfo>
    <tripinfo id="vehicle_57" depart="2.80" departLane="road2_0" departPos="4.10" departPosLat="0.00" departSpeed="2.60" departDelay="1.60" arrival="32.40" arrivalLane="-road3_0" arrivalPos="19.96" arrivalPosLat="0.00" arrivalSpeed="13.68" duration="29.60" routeLength="289.97" waitingTime="0.00" waitingCount="0" stopTime="0.00" timeLoss="7.44" rerouteNo="1" devices="tripinfo_vehicle_57 routing_vehicle_57 emissions_vehicle_57 battery_vehicle_57" vType="human" speedFactor="1.14" vaporized="">
        <emissions CO_abs="0" CO2_abs="0" HC_abs="0" PMx_abs="0" NOx_abs="0" fuel_abs="0" electricity_abs="111.163615"/>
    </tripinfo>
    <tripinfo id="vehicle_63" depart="3.60" departLane="road1_0" departPos="4.10" departPosLat="0.00" departSpeed="3.19" departDelay="0.00" arrival="32.40" arrivalLane="-road2_0" arrivalPos="19.96" arrivalPosLat="0.00" arrivalSpeed="13.34" duration="28.80" routeLength="289.97" waitingTime="0.00" waitingCount="0" stopTime="0.00" timeLoss="6.04" rerouteNo="1" devices="tripinfo_vehicle_63 routing_vehicle_63 emissions_vehicle_63 battery_vehicle_63" vType="human" speedFactor="0.99" vaporized="">
        <emissions CO_abs="0" CO2_abs="0" HC_abs="0" PMx_abs="0" NOx_abs="0" fuel_abs="0" electricity_abs="108.671882"/>
    </tripinfo>
    <tripinfo id="vehicle_79" depart="8.40" departLane="road0_0" departPos="4.10" departPosLat="0.00" departSpeed="2.38" departDelay="4.00" arrival="34.40" arrivalLane="-road2_0" arrivalPos="19.96" arrivalPosLat="0.00" arrivalSpeed="12.31" duration="26.00" routeLength="206.37" waitingTime="0.00" waitingCount="0" stopTime="0.00" timeLoss="9.76" rerouteNo="0" devices="tripinfo_vehicle_79 emissions_vehicle_79 battery_vehicle_79" vType="human" speedFactor="1.09" vaporized="">
        <emissions CO_abs="0" CO2_abs="0" HC_abs="0" PMx_abs="0" NOx_abs="0" fuel_abs="0" electricity_abs="76.227447"/>
    </tripinfo>
    <tripinfo id="vehicle_4" depart="9.60" departLane="road1_0" departPos="4.10" departPosLat="0.00" departSpeed="7.03" departDelay="0.00" arrival="34.80" arrivalLane="-road3_0" arrivalPos="19.96" arrivalPosLat="0.00" arrivalSpeed="11.29" duration="25.20" routeLength="206.37" waitingTime="0.00" waitingCount="0" stopTime="0.00" timeLoss="8.87" rerouteNo="1" devices="tripinfo_vehicle_4 routing_vehicle_4 emissions_vehicle_4 battery_vehicle_4" vType="human" speedFactor="1.03" vaporized="">
        <emissions CO_abs="0" CO2_abs="0" HC_abs="0" PMx_abs="0" NOx_abs="0" fuel_abs="0" electricity_abs="58.675735"/>
    </tripinfo>
    <tripinfo id="vehicle_53" depart="4.80" departLane="road1_0" departPos="4.10" departPosLat="0.00" departSpeed="2.94" departDelay="0.40" arrival="36.40" arrivalLane="-road2_0" arrivalPos="19.96" arrivalPosLat="0.00" arrivalSpeed="11.96" duration="31.60" routeLength="289.97" waitingTime="0.00" waitingCount="0" stopTime="0.00" timeLoss="9.44" rerouteNo="1" devices="tripinfo_vehicle_53 routing_vehicle_53 emissions_vehicle_53 battery_vehicle_53" vType="human" speedFactor="1.10" vaporized="">
        <emissions CO_abs="0" CO2_abs="0" HC_abs="0" PMx_abs="0" NOx_abs="0" fuel_abs="0" electricity_abs="95.325179"/>
    </tripinfo>
    <tripinfo id="vehicle_19" depart="13.60" departLane="road1_0" departPos="4.10" departPosLat="0.00" departSpeed="0.60" departDelay="0.00" arrival="36.80" arrivalLane="-road3_0" arrivalPos="19.96" arrivalPosLat="0.00" arrivalSpeed="12.70" duration="23.20" routeLength="206.37" waitingTime="0.00" waitingCount="0" stopTime="0.00" timeLoss="7.03" rerouteNo="1" devices="tripinfo_vehicle_19 routing_vehicle_19 emissions_vehicle_19 battery_vehicle_19" vType="human" speedFactor="1.16" vaporized="">
        <emissions CO_abs="0" CO2_abs="0" HC_abs="0" PMx_abs="0" NOx_abs="0" fuel_abs="0" electricity_abs="83.287258"/>
    </tripinfo>
    <tripinfo id="vehicle_76" depart="7.20" departLane="road2_0" departPos="4.10" departPosLat="0.00" departSpeed="2.57" departDelay="2.40" arrival="38.80" arrivalLane="-road1_0" arrivalPos="19.96" arrivalPosLat="0.00" arrivalSpeed="12.31" duration="31.60" routeLength="122.77" waitingTime="12.40" waitingCount="1" stopTime="0.00" timeLoss="21.08" rerouteNo="1" devices="tripinfo_vehicle_76 routing_vehicle_76 emissions_vehicle_76 battery_vehicle_76" vType="human" speedFactor="1.03" vaporized="">
        <emissions CO_abs="0" CO2_abs="0" HC_abs="0" PMx_abs="0" NOx_abs="0" fuel_abs="0" electricity_abs="62.934895"/>
    </tripinfo>
    <tripinfo id="vehicle_38" depart="22.80" departLane="road1_0" departPos="4.10" departPosLat="0.00" departSpeed="2.31" departDelay="1.20" arrival="39.20" arrivalLane="-road0_0" arrivalPos="19.96" arrivalPosLat="0.00" arrivalSpeed="11.72" duration="16.40" routeLength="122.77" waitingTime="0.00" waitingCount="0" stopTime="0.00" timeLoss="6.32" rerouteNo="1" devices="tripinfo_vehicle_38 routing_vehicle_38 emissions_vehicle_38 battery_vehicle_38" vType="human" speedFactor="1.10" vaporized="">
        <emissions CO_abs="0" CO2_abs="0" HC_abs="0" PMx_abs="0" NOx_abs="0" fuel_abs="0" electricity_abs="58.499606"/>
    </tripinfo>
    <tripinfo id="vehicle_41" depart="8.40" departLane="road3_0" departPos="4.10" departPosLat="0.00" departSpeed="0.15" departDelay="2.80" arrival="41.60" arrivalLane="-road2_0" arrivalPos="19.96" arrivalPosLat="0.00" arrivalSpeed="12.44" duration="33.20" routeLength="122.77" waitingTime="11.20" waitingCount="1" stopTime="0.00" timeLoss="22.45" rerouteNo="1" devices="tripinfo_vehicle_41 routing_vehicle_41 emissions_vehicle_41 battery_vehicle_41" vType="human" speedFactor="0.96" vaporized="">
        <emissions CO_abs="0" CO2_abs="0" HC_abs="0" PMx_abs="0" NOx_abs="0" fuel_abs="0" electricity_abs="59.881321"/>
    </tripinfo>
    <tripinfo id="vehicle_32" depart="25.20" departLane="road1_0" departPos="4.10" departPosLat="0.00" departSpeed="2.57" departDelay="3.20" arrival="42.40" arrivalLane="-road0_0" arrivalPos="19.96" arrivalPosLat="0.00" arrivalSpeed="12.00" duration="17.20" routeLength="122.77" waitingTime="0.00" waitingCount="0" stopTime="0.00" timeLoss="6.63" rerouteNo="1" devices="tripinfo_vehicle_32 routing_vehicle_32 emissions_vehicle_32 battery_vehicle_32" vType="human" speedFactor="1.01" vaporized="">
        <emissions CO_abs="0" CO2_abs="0" HC_abs="0" PMx_abs="0" NOx_abs="0" fuel_abs="0" electricity_abs="58.141638"/>
    </tripinfo>
    <tripinfo id="vehicle_50" depart="9.60" departLane="road2_0" departPos="4.10" departPosLat="0.00" departSpeed="2.84" departDelay="4.40" arrival="42.40" arrivalLane="-road1_0" arrivalPos="19.96" arrivalPosLat="0.00" arrivalSpeed="10.40" duration="32.80" routeLength="122.77" waitingTime="12.00" waitingCount="1" stopTime="0.00" timeLoss="20.62" rerouteNo="1" devices="tripinfo_vehicle_50 routing_vehicle_50 emissions_vehicle_50 battery_vehicle_50" vType="human" speedFactor="0.85" vaporized="">
        <emissions CO_abs="0" CO2_abs="0" HC_abs="0" PMx_abs="0" NOx_abs="0" fuel_abs="0" electricity_abs="48.058472"/>
    </tripinfo>
    <tripinfo id="vehicle_12" depart="10.80" departLane="road3_0" departPos="4.10" departPosLat="0.00" departSpeed="1.01" departDelay="3.60" arrival="44.00" arrivalLane="-road2_0" arrivalPos="19.96" arrivalPosLat="0.00" arrivalSpeed="11.98" duration="33.20" routeLength="122.77" waitingTime="10.80" waitingCount="1" stopTime="0.00" timeLoss="22.79" rerouteNo="1" devices="tripinfo_vehicle_12 routing_vehicle_12 emissions_vehicle_12 battery_vehicle_12" vType="human" speedFactor="1.05" vaporized="">
        <emissions CO_abs="0" CO2_abs="0" HC_abs="0" PMx_abs="0" NOx_abs="0" fuel_abs="0" electricity_abs="57.221341"/>
    </tripinfo>
    <tripinfo id="vehicle_36" depart="21.60" departLane="road1_0" departPos="4.10" departPosLat="0.00" departSpeed="5.40" departDelay="0.40" arrival="44.80" arrivalLane="-road3_0" arrivalPos="19.96" arrivalPosLat="0.00" arrivalSpeed="12.19" duration="23.20" routeLength="206.37" waitingTime="0.00" waitingCount="0" stopTime="0.00" timeLoss="6.35" rerouteNo="1" devices="tripinfo_vehicle_36 routing_vehicle_36 emissions_vehicle_36 battery_vehicle_36" vType="human" speedFactor="0.97" vaporized="">
        <emissions CO_abs="0" CO2_abs="0" HC_abs="0" PMx_abs="0" NOx_abs="0" fuel_abs="0" electricity_abs="72.487602"/>
    </tripinfo>
    <tripinfo id="vehicle_48" depart="10.40" departLane="road0_0" departPos="4.10" departPosLat="0.00" departSpeed="2.46" departDelay="4.00" arrival="48.00" arrivalLane="-road1_0" arrivalPos="19.96" arrivalPosLat="0.00" arrivalSpeed="11.20" duration="37.60" routeLength="289.97" waitingTime="0.00" waitingCount="0" stopTime="0.00" timeLoss="12.12" rerouteNo="0" devices="tripinfo_vehicle_48 emissions_vehicle_48 battery_vehicle_48" vType="human" speedFactor="0.88" vaporized="">
        <emissions CO_abs="0" CO2_abs="0" HC_abs="0" PMx_abs="0" NOx_abs="0" fuel_abs="0" electricity_abs="80.450505"/>
    </tripinfo>
    <tripinfo id="vehicle_61" depart="17.60" departLane="road0_0" departPos="4.10" departPosLat="0.00" departSpeed="2.39" departDelay="7.20" arrival="48.80" arrivalLane="-road3_0" arrivalPos="19.96" arrivalPosLat="0.00" arrivalSpeed="12.39" duration="31.20" routeLength="122.77" waitingTime="8.80" waitingCount="1" stopTime="0.00" timeLoss="21.26" rerouteNo="0" devices="tripinfo_vehicle_61 emissions_vehicle_61 battery_vehicle_61" vType="human" speedFactor="1.12" vaporized="">
        <emissions CO_abs="0" CO2_abs="0" HC_abs="0" PMx_abs="0" NOx_abs="0" fuel_abs="0" electricity_abs="60.111434"/>
    </tripinfo>
    <tripinfo id="vehicle_11" depart="20.80" departLane="road1_0" departPos="4.10" departPosLat="0.00" departSpeed="9.75" departDelay="0.00" arrival="50.00" arrivalLane="-road2_0" arrivalPos="19.96" arrivalPosLat="0.00" arrivalSpeed="12.17" duration="29.20" routeLength="289.97" waitingTime="0.00" waitingCount="0" stopTime="0.00" timeLoss="6.99" rerouteNo="1" devices="tripinfo_vehicle_11 routing_vehicle_11 emissions_vehicle_11 battery_vehicle_11" vType="human" speedFactor="1.03" vaporized="">
        <emissions CO_abs="0" CO2_abs="0" HC_abs="0" PMx_abs="0" NOx_abs="0" fuel_abs="0" electricity_abs="80.558569"/>
    </tripinfo>
    <tripinfo id="vehicle_42" depart="29.60" departLane="road1_0" departPos="4.10" departPosLat="0.00" departSpeed="1.72" departDelay="4.00" arrival="52.40" arrivalLane="-road3_0" arrivalPos="19.96" arrivalPosLat="0.00" arrivalSpeed="11.97" duration="22.80" routeLength="206.37" waitingTime="0.00" waitingCount="0" stopTime="0.00" timeLoss="6.77" rerouteNo="1" devices="tripinfo_vehicle_42 routing_vehicle_42 emissions_vehicle_42 battery_vehicle_42" vType="human" speedFactor="1.09" vaporized="">
        <emissions CO_abs="0" CO2_abs="0" HC_abs="0" PMx_abs="0" NOx_abs="0" fuel_abs="0" electricity_abs="82.147783"/>
    </tripinfo>
    <tripinfo id="vehicle_60" depart="27.20" departLane="road3_0" departPos="4.10" departPosLat="0.00" departSpeed="0.20" departDelay="19.60" arrival="54.00" arrivalLane="-road1_0" arrivalPos="19.96" arrivalPosLat="0.00" arrivalSpeed="11.59" duration="26.80" routeLength="206.37" waitingTime="0.00" waitingCount="0" stopTime="0.00" timeLoss="10.45" rerouteNo="1" devices="tripinfo_vehicle_60 routing_vehicle_60 emissions_vehicle_60 battery_vehicle_60" vType="human" speedFactor="1.08" vaporized="">
        <emissions CO_abs="0" CO2_abs="0" HC_abs="0" PMx_abs="0" NOx_abs="0" fuel_abs="0" electricity_abs="73.006916"/>
    </tripinfo>
    <tripinfo id="vehicle_64" depart="6.00" departLane="road3_0" departPos="4.10" departPosLat="0.00" departSpeed="1.73" departDelay="1.20" arrival="54.40" arrivalLane="-road0_0" arrivalPos="19.96" arrivalPosLat="0.00" arrivalSpeed="11.08" duration="48.40" routeLength="289.97" waitingTime="12.80" waitingCount="1" stopTime="0.00" timeLoss="24.84" rerouteNo="1" devices="tripinfo_vehicle_64 routing_vehicle_64 emissions_vehicle_64 battery_vehicle_64" vType="human" speedFactor="0.94" vaporized="">
        <emissions CO_abs="0" CO2_abs="0" HC_abs="0" PMx_abs="0" NOx_abs="0" fuel_abs="0" electricity_abs="86.218884"/>
    </tripinfo>
    <tripinfo id="vehicle_1" depart="15.60" departLane="road0_0" departPos="4.10" departPosLat="0.00" departSpeed="2.48" departDelay="5.20" arrival="55.60" arrivalLane="-road2_0" arrivalPos="19.96" arrivalPosLat="0.00" arrivalSpeed="11.54" duration="40.00" routeLength="206.37" waitingTime="10.40" waitingCount="1" stopTime="0.00" timeLoss="22.54" rerouteNo="0" devices="tripinfo_vehicle_1 emissions_vehicle_1 battery_vehicle_1" vType="human" speedFactor="0.94" vaporized="">
        <emissions CO_abs="0" CO2_abs="0" HC_abs="0" PMx_abs="0" NOx_abs="0" fuel_abs="0" electricity_abs="71.118326"/>
    </tripinfo>
    <tripinfo id="rl_0" depart="29.60" departLane="road3_0" departPos="4.10" departPosLat="0.00" departSpeed="1.68" departDelay="21.60" arrival="55.60" arrivalLane="-road1_0" arrivalPos="19.96" arrivalPosLat="0.00" arrivalSpeed="7.94" duration="26.00" routeLength="206.37" waitingTime="0.00" waitingCount="0" stopTime="0.00" timeLoss="10.01" rerouteNo="1" devices="tripinfo_rl_0 routing_rl_0 emissions_rl_0 battery_rl_0 driverstaterl_0" vType="rlAnget" speedFactor="1.03" vaporized="">
        <emissions CO_abs="0" CO2_abs="0" HC_abs="0" PMx_abs="0" NOx_abs="0" fuel_abs="0" electricity_abs="58.391407"/>
    </tripinfo>
    <tripinfo id="vehicle_49" depart="12.00" departLane="road2_0" departPos="4.10" departPosLat="0.00" departSpeed="0.09" departDelay="4.80" arrival="59.20" arrivalLane="-road3_0" arrivalPos="19.96" arrivalPosLat="0.00" arrivalSpeed="11.65" duration="47.20" routeLength="289.97" waitingTime="10.80" waitingCount="1" stopTime="0.00" timeLoss="20.88" rerouteNo="1" devices="tripinfo_vehicle_49 routing_vehicle_49 emissions_vehicle_49 battery_vehicle_49" vType="human" speedFactor="0.85" vaporized="">
        <emissions CO_abs="0" CO2_abs="0" HC_abs="0" PMx_abs="0" NOx_abs="0" fuel_abs="0" electricity_abs="89.663068"/>
    </tripinfo>
    <tripinfo id="vehicle_21" depart="32.00" departLane="road3_0" departPos="4.10" departPosLat="0.00" departSpeed="4.03" departDelay="21.60" arrival="59.60" arrivalLane="-road1_0" arrivalPos="19.96" arrivalPosLat="0.00" arrivalSpeed="12.21" duration="27.60" routeLength="206.37" waitingTime="0.00" waitingCount="0" stopTime="0.00" timeLoss="11.00" rerouteNo="1" devices="tripinfo_vehicle_21 routing_vehicle_21 emissions_vehicle_21 battery_vehicle_21" vType="human" speedFactor="1.01" vaporized="">
        <emissions CO_abs="0" CO2_abs="0" HC_abs="0" PMx_abs="0" NOx_abs="0" fuel_abs="0" electricity_abs="71.350357"/>
    </tripinfo>
    <tripinfo id="vehicle_66" depart="27.60" departLane="road1_0" departPos="4.10" departPosLat="0.00" departSpeed="2.92" departDelay="5.60" arrival="59.60" arrivalLane="-road2_0" arrivalPos="19.96" arrivalPosLat="0.00" arrivalSpeed="11.34" duration="32.00" routeLength="289.97" waitingTime="0.00" waitingCount="0" stopTime="0.00" timeLoss="7.07" rerouteNo="1" devices="tripinfo_vehicle_66 routing_vehicle_66 emissions_vehicle_66 battery_vehicle_66" vType="human" speedFactor="0.91" vaporized="">
        <emissions CO_abs="0" CO2_abs="0" HC_abs="0" PMx_abs="0" NOx_abs="0" fuel_abs="0" electricity_abs="87.558877"/>
    </tripinfo>
    <tripinfo id="vehicle_0" depart="28.40" departLane="road2_0" departPos="4.10" departPosLat="0.00" departSpeed="0.86" departDelay="20.40" arrival="61.20" arrivalLane="-road3_0" arrivalPos="19.96" arrivalPosLat="0.00" arrivalSpeed="12.05" duration="32.80" routeLength="289.97" waitingTime="0.00" waitingCount="0" stopTime="0.00" timeLoss="10.44" rerouteNo="1" devices="tripinfo_vehicle_0 routing_vehicle_0 emissions_vehicle_0 battery_vehicle_0" vType="human" speedFactor="1.06" vaporized="">
        <emissions CO_abs="0" CO2_abs="0" HC_abs="0" PMx_abs="0" NOx_abs="0" fuel_abs="0" electricity_abs="98.034144"/>
    </tripinfo>
    <tripinfo id="vehicle_34" depart="31.20" departLane="road2_0" departPos="4.10" departPosLat="0.00" departSpeed="2.62" departDelay="22.40" arrival="62.40" arrivalLane="-road1_0" arrivalPos="19.96" arrivalPosLat="0.00" arrivalSpeed="13.81" duration="31.20" routeLength="122.77" waitingTime="10.80" waitingCount="1" stopTime="0.00" timeLoss="20.35" rerouteNo="1" devices="tripinfo_vehicle_34 routing_vehicle_34 emissions_vehicle_34 battery_vehicle_34" vType="human" speedFactor="0.99" vaporized="">
        <emissions CO_abs="0" CO2_abs="0" HC_abs="0" PMx_abs="0" NOx_abs="0" fuel_abs="0" electricity_abs="70.034008"/>
    </tripinfo>
    <tripinfo id="vehicle_3" depart="32.00" departLane="road1_0" departPos="4.10" departPosLat="0.00" departSpeed="3.04" departDelay="4.40" arrival="62.80" arrivalLane="-road2_0" arrivalPos="19.96" arrivalPosLat="0.00" arrivalSpeed="11.60" duration="30.80" routeLength="289.97" waitingTime="0.00" waitingCount="0" stopTime="0.00" timeLoss="8.77" rerouteNo="1" devices="tripinfo_vehicle_3 routing_vehicle_3 emissions_vehicle_3 battery_vehicle_3" vType="human" speedFactor="1.08" vaporized="">
        <emissions CO_abs="0" CO2_abs="0" HC_abs="0" PMx_abs="0" NOx_abs="0" fuel_abs="0" electricity_abs="94.750983"/>
    </tripinfo>
    <tripinfo id="vehicle_31" depart="20.00" departLane="road0_0" departPos="4.10" departPosLat="0.00" departSpeed="1.14" departDelay="9.20" arrival="64.40" arrivalLane="-road1_0" arrivalPos="19.96" arrivalPosLat="0.00" arrivalSpeed="12.56" duration="44.40" routeLength="289.97" waitingTime="8.40" waitingCount="1" stopTime="0.00" timeLoss="22.12" rerouteNo="0" devices="tripinfo_vehicle_31 emissions_vehicle_31 battery_vehicle_31" vType="human" speedFactor="1.15" vaporized="">
        <emissions CO_abs="0" CO2_abs="0" HC_abs="0" PMx_abs="0" NOx_abs="0" fuel_abs="0" electricity_abs="104.383228"/>
    </tripinfo>
    <tripinfo id="vehicle_54" depart="34.40" departLane="road0_0" departPos="4.10" departPosLat="0.00" departSpeed="1.52" departDelay="22.80" arrival="67.60" arrivalLane="-road3_0" arrivalPos="19.96" arrivalPosLat="0.00" arrivalSpeed="11.80" duration="33.20" routeLength="122.77" waitingTime="14.40" waitingCount="1" stopTime="0.00" timeLoss="22.76" rerouteNo="0" devices="tripinfo_vehicle_54 emissions_vehicle_54 battery_vehicle_54" vType="human" speedFactor="1.00" vaporized="">
        <emissions CO_abs="0" CO2_abs="0" HC_abs="0" PMx_abs="0" NOx_abs="0" fuel_abs="0" electricity_abs="59.861818"/>
    </tripinfo>
    <tripinfo id="vehicle_28" depart="34.00" departLane="road1_0" departPos="4.10" departPosLat="0.00" departSpeed="1.76" departDelay="4.40" arrival="71.20" arrivalLane="-road2_0" arrivalPos="19.96" arrivalPosLat="0.00" arrivalSpeed="13.00" duration="37.20" routeLength="289.97" waitingTime="3.20" waitingCount="1" stopTime="0.00" timeLoss="14.80" rerouteNo="1" devices="tripinfo_vehicle_28 routing_vehicle_28 emissions_vehicle_28 battery_vehicle_28" vType="human" speedFactor="1.13" vaporized="">
        <emissions CO_abs="0" CO2_abs="0" HC_abs="0" PMx_abs="0" NOx_abs="0" fuel_abs="0" electricity_abs="106.105466"/>
    </tripinfo>
    <tripinfo id="vehicle_24" depart="39.20" departLane="road0_0" departPos="4.10" departPosLat="0.00" departSpeed="1.69" departDelay="24.40" arrival="73.60" arrivalLane="-road3_0" arrivalPos="19.96" arrivalPosLat="0.00" arrivalSpeed="11.05" duration="34.40" routeLength="122.77" waitingTime="12.40" waitingCount="1" stopTime="0.00" timeLoss="21.94" rerouteNo="0" devices="tripinfo_vehicle_24 emissions_vehicle_24 battery_vehicle_24" vType="human" speedFactor="0.83" vaporized="">
        <emissions CO_abs="0" CO2_abs="0" HC_abs="0" PMx_abs="0" NOx_abs="0" fuel_abs="0" electricity_abs="51.354686"/>
    </tripinfo>
    <tripinfo id="vehicle_52" depart="33.20" departLane="road2_0" departPos="4.10" departPosLat="0.00" departSpeed="1.61" departDelay="24.00" arrival="74.40" arrivalLane="-road0_0" arrivalPos="19.96" arrivalPosLat="0.00" arrivalSpeed="12.33" duration="41.20" routeLength="206.37" waitingTime="9.60" waitingCount="2" stopTime="0.00" timeLoss="24.70" rerouteNo="1" devices="tripinfo_vehicle_52 routing_vehicle_52 emissions_vehicle_52 battery_vehicle_52" vType="human" speedFactor="1.02" vaporized="">
        <emissions CO_abs="0" CO2_abs="0" HC_abs="0" PMx_abs="0" NOx_abs="0" fuel_abs="0" electricity_abs="78.136511"/>
    </tripinfo>
    <tripinfo id="vehicle_77" depart="33.60" departLane="road3_0" departPos="4.10" departPosLat="0.00" departSpeed="1.40" departDelay="22.40" arrival="76.00" arrivalLane="-road1_0" arrivalPos="19.96" arrivalPosLat="0.00" arrivalSpeed="12.36" duration="42.40" routeLength="206.37" waitingTime="15.60" waitingCount="2" stopTime="0.00" timeLoss="25.77" rerouteNo="1" devices="tripinfo_vehicle_77 routing_vehicle_77 emissions_vehicle_77 battery_vehicle_77" vType="human" speedFactor="0.98" vaporized="">
        <emissions CO_abs="0" CO2_abs="0" HC_abs="0" PMx_abs="0" NOx_abs="0" fuel_abs="0" electricity_abs="84.405772"/>
    </tripinfo>
    <tripinfo id="vehicle_39" depart="57.20" departLane="road0_0" departPos="4.10" departPosLat="0.00" departSpeed="1.34" departDelay="42.00" arrival="76.40" arrivalLane="-road3_0" arrivalPos="19.96" arrivalPosLat="0.00" arrivalSpeed="11.11" duration="19.20" routeLength="122.77" waitingTime="0.00" waitingCount="0" stopTime="0.00" timeLoss="7.54" rerouteNo="0" devices="tripinfo_vehicle_39 emissions_vehicle_39 battery_vehicle_39" vType="human" speedFactor="0.90" vaporized="">
        <emissions CO_abs="0" CO2_abs="0" HC_abs="0" PMx_abs="0" NOx_abs="0" fuel_abs="0" electricity_abs="51.358306"/>
    </tripinfo>
    <tripinfo id="vehicle_51" depart="36.00" departLane="road2_0" departPos="4.10" departPosLat="0.00" departSpeed="1.92" departDelay="26.00" arrival="76.40" arrivalLane="-road0_0" arrivalPos="19.96" arrivalPosLat="0.00" arrivalSpeed="12.49" duration="40.40" routeLength="206.37" waitingTime="8.80" waitingCount="1" stopTime="0.00" timeLoss="24.12" rerouteNo="1" devices="tripinfo_vehicle_51 routing_vehicle_51 emissions_vehicle_51 battery_vehicle_51" vType="human" speedFactor="1.17" vaporized="">