<?xml version="1.0" encoding="UTF-8"?>

<!-- generated on 2025-08-10 10:48:47 by Eclipse SUMO sumo Version v1_20_0+0085-e155ab8699b
<configuration xmlns:xsi="http://www.w3.org/2001/XMLSchema-instance" xsi:noNamespaceSchemaLocation="http://sumo.dlr.de/xsd/sumoConfiguration.xsd">

    <input>
        <net-file value="../networks/roundabout.net.xml"/>
        <route-files value="../networks/routes_EIDM.rou.xml"/>
    </input>

    <output>
        <output-prefix value="24-"/>
        <battery-output.precision value="4"/>
        <tripinfo-output value="../networks/output_data/output_eidm/tripinfo/tripinfo-output.xml"/>
        <collision-output value="../networks/output_data/output_eidm/collision/collision-output.xml"/>
    </output>

    <time>
        <begin value="0"/>
        <step-length value="0.4"/>
    </time>

    <processing>
        <step-method.ballistic value="true"/>
        <lateral-resolution value="3.2"/>
        <collision.action value="warn"/>
        <collision.check-junctions value="True"/>
        <collision.mingap-factor value="0"/>
        <time-to-teleport value="-1"/>
        <random-depart-offset value="5"/>
    </processing>

    <report>
        <no-warnings value="True"/>
        <no-step-log value="True"/>
    </report>

    <emissions>
        <device.emissions.probability value="1"/>
    </emissions>

    <battery>
        <device.battery.probability value="1"/>
    </battery>

    <traci_server>
        <remote-port value="35657"/>
    </traci_server>

    <gui_only>
        <quit-on-end value="True"/>
        <start value="True"/>
        <delay value="0"/>
    </gui_only>

</configuration>
-->

<tripinfos xmlns:xsi="http://www.w3.org/2001/XMLSchema-instance" xsi:noNamespaceSchemaLocation="http://sumo.dlr.de/xsd/tripinfo_file.xsd">
    <tripinfo id="vehicle_17" depart="1.20" departLane="road1_0" departPos="4.10" departPosLat="0.00" departSpeed="5.28" departDelay="0.40" arrival="17.20" arrivalLane="-road0_0" arrivalPos="19.96" arrivalPosLat="0.00" arrivalSpeed="13.17" duration="16.00" routeLength="122.77" waitingTime="0.00" waitingCount="0" stopTime="0.00" timeLoss="4.98" rerouteNo="1" devices="tripinfo_vehicle_17 routing_vehicle_17 emissions_vehicle_17 battery_vehicle_17" vType="human" speedFactor="0.94" vaporized="">
        <emissions CO_abs="0" CO2_abs="0" HC_abs="0" PMx_abs="0" NOx_abs="0" fuel_abs="0" electricity_abs="63.402826"/>
    </tripinfo>
    <tripinfo id="vehicle_11" depart="2.40" departLane="road0_0" departPos="4.10" departPosLat="0.00" departSpeed="2.65" departDelay="1.60" arrival="18.00" arrivalLane="-road3_0" arrivalPos="19.96" arrivalPosLat="0.00" arrivalSpeed="10.89" duration="15.60" routeLength="122.77" waitingTime="0.00" waitingCount="0" stopTime="0.00" timeLoss="5.23" rerouteNo="0" devices="tripinfo_vehicle_11 emissions_vehicle_11 battery_vehicle_11" vType="human" speedFactor="1.03" vaporized="">
        <emissions CO_abs="0" CO2_abs="0" HC_abs="0" PMx_abs="0" NOx_abs="0" fuel_abs="0" electricity_abs="53.134232"/>
    </tripinfo>
    <tripinfo id="vehicle_37" depart="4.80" departLane="road3_0" departPos="4.10" departPosLat="0.00" departSpeed="3.21" departDelay="0.00" arrival="18.40" arrivalLane="-road2_0" arrivalPos="19.96" arrivalPosLat="0.00" arrivalSpeed="13.69" duration="13.60" routeLength="122.77" waitingTime="0.00" waitingCount="0" stopTime="0.00" timeLoss="3.49" rerouteNo="1" devices="tripinfo_vehicle_37 routing_vehicle_37 emissions_vehicle_37 battery_vehicle_37" vType="human" speedFactor="1.18" vaporized="">
        <emissions CO_abs="0" CO2_abs="0" HC_abs="0" PMx_abs="0" NOx_abs="0" fuel_abs="0" electricity_abs="73.523395"/>
    </tripinfo>
    <tripinfo id="vehicle_10" depart="0.40" departLane="road1_0" departPos="4.10" departPosLat="0.00" departSpeed="6.33" departDelay="0.00" arrival="20.80" arrivalLane="-road3_0" arrivalPos="19.96" arrivalPosLat="0.00" arrivalSpeed="12.66" duration="20.40" routeLength="206.37" waitingTime="0.00" waitingCount="0" stopTime="0.00" timeLoss="4.33" rerouteNo="1" devices="tripinfo_vehicle_10 routing_vehicle_10 emissions_vehicle_10 battery_vehicle_10" vType="human" speedFactor="1.09" vaporized="">
        <emissions CO_abs="0" CO2_abs="0" HC_abs="0" PMx_abs="0" NOx_abs="0" fuel_abs="0" electricity_abs="77.292955"/>
    </tripinfo>
    <tripinfo id="vehicle_5" depart="5.60" departLane="road2_0" departPos="4.10" departPosLat="0.00" departSpeed="2.28" departDelay="0.40" arrival="23.20" arrivalLane="-road1_0" arrivalPos="19.96" arrivalPosLat="0.00" arrivalSpeed="11.32" duration="17.60" routeLength="122.77" waitingTime="0.00" waitingCount="0" stopTime="0.00" timeLoss="5.32" rerouteNo="1" devices="tripinfo_vehicle_5 routing_vehicle_5 emissions_vehicle_5 battery_vehicle_5" vType="human" speedFactor="0.83" vaporized="">
        <emissions CO_abs="0" CO2_abs="0" HC_abs="0" PMx_abs="0" NOx_abs="0" fuel_abs="0" electricity_abs="52.877036"/>
    </tripinfo>
    <tripinfo id="vehicle_67" depart="5.20" departLane="road1_0" departPos="4.10" departPosLat="0.00" departSpeed="3.11" departDelay="0.00" arrival="23.20" arrivalLane="-road0_0" arrivalPos="19.96" arrivalPosLat="0.00" arrivalSpeed="11.29" duration="18.00" routeLength="122.77" waitingTime="0.00" waitingCount="0" stopTime="0.00" timeLoss="6.90" rerouteNo="1" devices="tripinfo_vehicle_67 routing_vehicle_67 emissions_vehicle_67 battery_vehicle_67" vType="human" speedFactor="0.91" vaporized="">
        <emissions CO_abs="0" CO2_abs="0" HC_abs="0" PMx_abs="0" NOx_abs="0" fuel_abs="0" electricity_abs="50.734203"/>
    </tripinfo>
    <tripinfo id="vehicle_30" depart="2.40" departLane="road2_0" departPos="4.10" departPosLat="0.00" departSpeed="1.52" departDelay="0.00" arrival="25.20" arrivalLane="-road0_0" arrivalPos="19.96" arrivalPosLat="0.00" arrivalSpeed="12.11" duration="22.80" routeLength="206.37" waitingTime="0.00" waitingCount="0" stopTime="0.00" timeLoss="6.72" rerouteNo="1" devices="tripinfo_vehicle_30 routing_vehicle_30 emissions_vehicle_30 battery_vehicle_30" vType="human" speedFactor="1.18" vaporized="">
        <emissions CO_abs="0" CO2_abs="0" HC_abs="0" PMx_abs="0" NOx_abs="0" fuel_abs="0" electricity_abs="79.389734"/>
    </tripinfo>
    <tripinfo id="vehicle_54" depart="10.40" departLane="road3_0" departPos="4.10" departPosLat="0.00" departSpeed="4.51" departDelay="1.20" arrival="26.40" arrivalLane="-road2_0" arrivalPos="19.96" arrivalPosLat="0.00" arrivalSpeed="12.62" duration="16.00" routeLength="122.77" waitingTime="0.00" waitingCount="0" stopTime="0.00" timeLoss="5.48" rerouteNo="1" devices="tripinfo_vehicle_54 routing_vehicle_54 emissions_vehicle_54 battery_vehicle_54" vType="human" speedFactor="1.00" vaporized="">
        <emissions CO_abs="0" CO2_abs="0" HC_abs="0" PMx_abs="0" NOx_abs="0" fuel_abs="0" electricity_abs="61.025512"/>
    </tripinfo>
    <tripinfo id="vehicle_4" depart="14.80" departLane="road3_0" departPos="4.10" departPosLat="0.00" departSpeed="9.63" departDelay="0.00" arrival="29.60" arrivalLane="-road2_0" arrivalPos="19.96" arrivalPosLat="0.00" arrivalSpeed="12.46" duration="14.80" routeLength="122.77" waitingTime="0.00" waitingCount="0" stopTime="0.00" timeLoss="4.30" rerouteNo="1" devices="tripinfo_vehicle_4 routing_vehicle_4 emissions_vehicle_4 battery_vehicle_4" vType="human" speedFactor="1.03" vaporized="">
        <emissions CO_abs="0" CO2_abs="0" HC_abs="0" PMx_abs="0" NOx_abs="0" fuel_abs="0" electricity_abs="41.209380"/>
    </tripinfo>
    <tripinfo id="vehicle_42" depart="0.40" departLane="road0_0" departPos="4.10" departPosLat="0.00" departSpeed="0.10" departDelay="0.00" arrival="32.80" arrivalLane="-road1_0" arrivalPos="19.96" arrivalPosLat="0.00" arrivalSpeed="12.58" duration="32.40" routeLength="289.97" waitingTime="0.00" waitingCount="0" stopTime="0.00" timeLoss="10.00" rerouteNo="0" devices="tripinfo_vehicle_42 emissions_vehicle_42 battery_vehicle_42" vType="human" speedFactor="1.09" vaporized="">
        <emissions CO_abs="0" CO2_abs="0" HC_abs="0" PMx_abs="0" NOx_abs="0" fuel_abs="0" electricity_abs="106.177168"/>
    </tripinfo>
    <tripinfo id="vehicle_27" depart="2.80" departLane="road1_0" departPos="4.10" departPosLat="0.00" departSpeed="0.15" departDelay="0.40" arrival="34.80" arrivalLane="-road2_0" arrivalPos="19.96" arrivalPosLat="0.00" arrivalSpeed="13.17" duration="32.00" routeLength="289.97" waitingTime="0.00" waitingCount="0" stopTime="0.00" timeLoss="8.26" rerouteNo="1" devices="tripinfo_vehicle_27 routing_vehicle_27 emissions_vehicle_27 battery_vehicle_27" vType="human" speedFactor="0.95" vaporized="">
        <emissions CO_abs="0" CO2_abs="0" HC_abs="0" PMx_abs="0" NOx_abs="0" fuel_abs="0" electricity_abs="104.878238"/>
    </tripinfo>
    <tripinfo id="vehicle_39" depart="4.00" departLane="road2_0" departPos="4.10" departPosLat="0.00" departSpeed="3.99" departDelay="0.40" arrival="34.80" arrivalLane="-road3_0" arrivalPos="19.96" arrivalPosLat="0.00" arrivalSpeed="11.70" duration="30.80" routeLength="289.97" waitingTime="0.00" waitingCount="0" stopTime="0.00" timeLoss="5.98" rerouteNo="1" devices="tripinfo_vehicle_39 routing_vehicle_39 emissions_vehicle_39 battery_vehicle_39" vType="human" speedFactor="0.90" vaporized="">
        <emissions CO_abs="0" CO2_abs="0" HC_abs="0" PMx_abs="0" NOx_abs="0" fuel_abs="0" electricity_abs="88.506595"/>
    </tripinfo>
    <tripinfo id="vehicle_52" depart="9.60" departLane="road2_0" departPos="4.10" departPosLat="0.00" departSpeed="2.12" departDelay="3.20" arrival="34.80" arrivalLane="-road0_0" arrivalPos="19.96" arrivalPosLat="0.00" arrivalSpeed="12.04" duration="25.20" routeLength="206.37" waitingTime="0.00" waitingCount="0" stopTime="0.00" timeLoss="8.82" rerouteNo="1" devices="tripinfo_vehicle_52 routing_vehicle_52 emissions_vehicle_52 battery_vehicle_52" vType="human" speedFactor="1.02" vaporized="">
        <emissions CO_abs="0" CO2_abs="0" HC_abs="0" PMx_abs="0" NOx_abs="0" fuel_abs="0" electricity_abs="77.975339"/>
    </tripinfo>
    <tripinfo id="vehicle_70" depart="8.00" departLane="road2_0" departPos="4.10" departPosLat="0.00" departSpeed="3.85" departDelay="2.80" arrival="39.60" arrivalLane="-road3_0" arrivalPos="19.96" arrivalPosLat="0.00" arrivalSpeed="12.28" duration="31.60" routeLength="289.97" waitingTime="0.00" waitingCount="0" stopTime="0.00" timeLoss="9.38" rerouteNo="1" devices="tripinfo_vehicle_70 routing_vehicle_70 emissions_vehicle_70 battery_vehicle_70" vType="human" speedFactor="1.02" vaporized="">
        <emissions CO_abs="0" CO2_abs="0" HC_abs="0" PMx_abs="0" NOx_abs="0" fuel_abs="0" electricity_abs="96.900001"/>
    </tripinfo>
    <tripinfo id="vehicle_71" depart="18.00" departLane="road3_0" departPos="4.10" departPosLat="0.00" departSpeed="4.38" departDelay="0.00" arrival="40.00" arrivalLane="-road1_0" arrivalPos="19.96" arrivalPosLat="0.00" arrivalSpeed="11.76" duration="22.00" routeLength="206.37" waitingTime="0.00" waitingCount="0" stopTime="0.00" timeLoss="5.22" rerouteNo="1" devices="tripinfo_vehicle_71 routing_vehicle_71 emissions_vehicle_71 battery_vehicle_71" vType="human" speedFactor="0.97" vaporized="">
        <emissions CO_abs="0" CO2_abs="0" HC_abs="0" PMx_abs="0" NOx_abs="0" fuel_abs="0" electricity_abs="74.545413"/>
    </tripinfo>
    <tripinfo id="vehicle_20" depart="8.80" departLane="road3_0" departPos="4.10" departPosLat="0.00" departSpeed="2.13" departDelay="0.00" arrival="42.40" arrivalLane="-road0_0" arrivalPos="19.96" arrivalPosLat="0.00" arrivalSpeed="11.68" duration="33.60" routeLength="289.97" waitingTime="0.00" waitingCount="0" stopTime="0.00" timeLoss="11.38" rerouteNo="1" devices="tripinfo_vehicle_20 routing_vehicle_20 emissions_vehicle_20 battery_vehicle_20" vType="human" speedFactor="1.02" vaporized="">
        <emissions CO_abs="0" CO2_abs="0" HC_abs="0" PMx_abs="0" NOx_abs="0" fuel_abs="0" electricity_abs="93.906024"/>
    </tripinfo>
    <tripinfo id="vehicle_14" depart="12.00" departLane="road2_0" departPos="4.10" departPosLat="0.00" departSpeed="2.51" departDelay="4.00" arrival="44.80" arrivalLane="-road3_0" arrivalPos="19.96" arrivalPosLat="0.00" arrivalSpeed="13.24" duration="32.80" routeLength="289.97" waitingTime="0.00" waitingCount="0" stopTime="0.00" timeLoss="10.07" rerouteNo="1" devices="tripinfo_vehicle_14 routing_vehicle_14 emissions_vehicle_14 battery_vehicle_14" vType="human" speedFactor="0.99" vaporized="">
        <emissions CO_abs="0" CO2_abs="0" HC_abs="0" PMx_abs="0" NOx_abs="0" fuel_abs="0" electricity_abs="104.399719"/>
    </tripinfo>
    <tripinfo id="vehicle_24" depart="9.60" departLane="road1_0" departPos="4.10" departPosLat="0.00" departSpeed="2.01" departDelay="2.40" arrival="46.40" arrivalLane="-road0_0" arrivalPos="19.96" arrivalPosLat="0.00" arrivalSpeed="11.42" duration="36.80" routeLength="122.77" waitingTime="12.80" waitingCount="2" stopTime="0.00" timeLoss="24.29" rerouteNo="1" devices="tripinfo_vehicle_24 routing_vehicle_24 emissions_vehicle_24 battery_vehicle_24" vType="human" speedFactor="0.83" vaporized="">
        <emissions CO_abs="0" CO2_abs="0" HC_abs="0" PMx_abs="0" NOx_abs="0" fuel_abs="0" electricity_abs="53.069774"/>
    </tripinfo>
    <tripinfo id="vehicle_18" depart="16.00" departLane="road3_0" departPos="4.10" departPosLat="0.00" departSpeed="5.29" departDelay="0.00" arrival="48.80" arrivalLane="-road0_0" arrivalPos="19.96" arrivalPosLat="0.00" arrivalSpeed="11.93" duration="32.80" routeLength="289.97" waitingTime="0.00" waitingCount="0" stopTime="0.00" timeLoss="9.06" rerouteNo="1" devices="tripinfo_vehicle_18 routing_vehicle_18 emissions_vehicle_18 battery_vehicle_18" vType="human" speedFactor="0.94" vaporized="">
        <emissions CO_abs="0" CO2_abs="0" HC_abs="0" PMx_abs="0" NOx_abs="0" fuel_abs="0" electricity_abs="86.352419"/>
    </tripinfo>
    <tripinfo id="vehicle_0" depart="30.00" departLane="road1_0" departPos="4.10" departPosLat="0.00" departSpeed="0.67" departDelay="19.20" arrival="52.80" arrivalLane="-road0_0" arrivalPos="19.96" arrivalPosLat="0.00" arrivalSpeed="11.88" duration="22.80" routeLength="122.77" waitingTime="0.00" waitingCount="0" stopTime="0.00" timeLoss="12.64" rerouteNo="1" devices="tripinfo_vehicle_0 routing_vehicle_0 emissions_vehicle_0 battery_vehicle_0" vType="human" speedFactor="1.06" vaporized="">
        <emissions CO_abs="0" CO2_abs="0" HC_abs="0" PMx_abs="0" NOx_abs="0" fuel_abs="0" electricity_abs="55.079592"/>
    </tripinfo>
    <tripinfo id="vehicle_12" depart="7.20" departLane="road1_0" departPos="4.10" departPosLat="0.00" departSpeed="2.17" departDelay="0.00" arrival="53.20" arrivalLane="-road2_0" arrivalPos="19.96" arrivalPosLat="0.00" arrivalSpeed="11.77" duration="46.00" routeLength="289.97" waitingTime="14.00" waitingCount="1" stopTime="0.00" timeLoss="23.57" rerouteNo="1" devices="tripinfo_vehicle_12 routing_vehicle_12 emissions_vehicle_12 battery_vehicle_12" vType="human" speedFactor="1.05" vaporized="">
        <emissions CO_abs="0" CO2_abs="0" HC_abs="0" PMx_abs="0" NOx_abs="0" fuel_abs="0" electricity_abs="100.956089"/>
    </tripinfo>
    <tripinfo id="vehicle_15" depart="4.00" departLane="road0_0" departPos="4.10" departPosLat="0.00" departSpeed="2.65" departDelay="1.60" arrival="56.40" arrivalLane="-road2_0" arrivalPos="19.96" arrivalPosLat="0.00" arrivalSpeed="12.06" duration="52.40" routeLength="206.37" waitingTime="26.40" waitingCount="1" stopTime="0.00" timeLoss="34.73" rerouteNo="0" devices="tripinfo_vehicle_15 emissions_vehicle_15 battery_vehicle_15" vType="human" speedFactor="0.93" vaporized="">
        <emissions CO_abs="0" CO2_abs="0" HC_abs="0" PMx_abs="0" NOx_abs="0" fuel_abs="0" electricity_abs="77.408964"/>
    </tripinfo>
    <tripinfo id="vehicle_64" depart="23.20" departLane="road3_0" departPos="4.10" departPosLat="0.00" departSpeed="4.58" departDelay="0.00" arrival="56.80" arrivalLane="-road0_0" arrivalPos="19.96" arrivalPosLat="0.00" arrivalSpeed="12.06" duration="33.60" routeLength="289.97" waitingTime="0.40" waitingCount="1" stopTime="0.00" timeLoss="9.63" rerouteNo="1" devices="tripinfo_vehicle_64 routing_vehicle_64 emissions_vehicle_64 battery_vehicle_64" vType="human" speedFactor="0.94" vaporized="">
        <emissions CO_abs="0" CO2_abs="0" HC_abs="0" PMx_abs="0" NOx_abs="0" fuel_abs="0" electricity_abs="92.415839"/>
    </tripinfo>
    <tripinfo id="vehicle_36" depart="12.00" departLane="road1_0" departPos="4.10" departPosLat="0.00" departSpeed="1.09" departDelay="4.80" arrival="60.00" arrivalLane="-road3_0" arrivalPos="19.96" arrivalPosLat="0.00" arrivalSpeed="11.92" duration="48.00" routeLength="206.37" waitingTime="11.60" waitingCount="1" stopTime="0.00" timeLoss="31.02" rerouteNo="1" devices="tripinfo_vehicle_36 routing_vehicle_36 emissions_vehicle_36 battery_vehicle_36" vType="human" speedFactor="0.97" vaporized="">
        <emissions CO_abs="0" CO2_abs="0" HC_abs="0" PMx_abs="0" NOx_abs="0" fuel_abs="0" electricity_abs="70.422519"/>
    </tripinfo>
    <tripinfo id="vehicle_35" depart="26.00" departLane="road3_0" departPos="4.10" departPosLat="0.00" departSpeed="0.88" departDelay="0.80" arrival="60.80" arrivalLane="-road0_0" arrivalPos="19.96" arrivalPosLat="0.00" arrivalSpeed="11.78" duration="34.80" routeLength="289.97" waitingTime="0.00" waitingCount="0" stopTime="0.00" timeLoss="12.57" rerouteNo="1" devices="tripinfo_vehicle_35 routing_vehicle_35 emissions_vehicle_35 battery_vehicle_35" vType="human" speedFactor="1.02" vaporized="">
        <emissions CO_abs="0" CO2_abs="0" HC_abs="0" PMx_abs="0" NOx_abs="0" fuel_abs="0" electricity_abs="96.365364"/>
    </tripinfo>
    <tripinfo id="vehicle_25" depart="24.40" departLane="road3_0" departPos="4.10" departPosLat="0.00" departSpeed="4.77" departDelay="0.80" arrival="63.60" arrivalLane="-road0_0" arrivalPos="19.96" arrivalPosLat="0.00" arrivalSpeed="12.05" duration="39.20" routeLength="289.97" waitingTime="0.40" waitingCount="1" stopTime="0.00" timeLoss="13.43" rerouteNo="1" devices="tripinfo_vehicle_25 routing_vehicle_25 emissions_vehicle_25 battery_vehicle_25" vType="human" speedFactor="0.87" vaporized="">
        <emissions CO_abs="0" CO2_abs="0" HC_abs="0" PMx_abs="0" NOx_abs="0" fuel_abs="0" electricity_abs="82.567215"/>
    </tripinfo>
    <tripinfo id="vehicle_33" depart="44.80" departLane="road0_0" departPos="4.10" departPosLat="0.00" departSpeed="3.43" departDelay="34.80" arrival="63.60" arrivalLane="-road3_0" arrivalPos="19.96" arrivalPosLat="0.00" arrivalSpeed="12.26" duration="18.80" routeLength="122.77" waitingTime="0.00" waitingCount="0" stopTime="0.00" timeLoss="8.62" rerouteNo="0" devices="tripinfo_vehicle_33 emissions_vehicle_33 battery_vehicle_33" vType="human" speedFactor="1.17" vaporized="">
        <emissions CO_abs="0" CO2_abs="0" HC_abs="0" PMx_abs="0" NOx_abs="0" fuel_abs="0" electricity_abs="59.520849"/>
    </tripinfo>
    <tripinfo id="vehicle_28" depart="29.60" departLane="road3_0" departPos="4.10" departPosLat="0.00" departSpeed="6.28" departDelay="0.00" arrival="65.20" arrivalLane="-road0_0" arrivalPos="19.96" arrivalPosLat="0.00" arrivalSpeed="12.44" duration="35.60" routeLength="289.97" waitingTime="0.00" waitingCount="0" stopTime="0.00" timeLoss="13.64" rerouteNo="1" devices="tripinfo_vehicle_28 routing_vehicle_28 emissions_vehicle_28 battery_vehicle_28" vType="human" speedFactor="1.13" vaporized="">
        <emissions CO_abs="0" CO2_abs="0" HC_abs="0" PMx_abs="0" NOx_abs="0" fuel_abs="0" electricity_abs="90.213451"/>
    </tripinfo>
    <tripinfo id="vehicle_26" depart="6.00" departLane="road0_0" departPos="4.10" departPosLat="0.00" departSpeed="3.08" departDelay="1.60" arrival="66.80" arrivalLane="-road1_0" arrivalPos="19.96" arrivalPosLat="0.00" arrivalSpeed="11.98" duration="60.80" routeLength="289.97" waitingTime="25.20" waitingCount="1" stopTime="0.00" timeLoss="36.47" rerouteNo="0" devices="tripinfo_vehicle_26 emissions_vehicle_26 battery_vehicle_26" vType="human" speedFactor="0.92" vaporized="">
        <emissions CO_abs="0" CO2_abs="0" HC_abs="0" PMx_abs="0" NOx_abs="0" fuel_abs="0" electricity_abs="93.246642"/>
    </tripinfo>
    <tripinfo id="vehicle_46" depart="39.20" departLane="road1_0" departPos="4.10" departPosLat="0.00" departSpeed="2.18" departDelay="24.40" arrival="68.00" arrivalLane="-road0_0" arrivalPos="19.96" arrivalPosLat="0.00" arrivalSpeed="12.64" duration="28.80" routeLength="122.77" waitingTime="3.60" waitingCount="1" stopTime="0.00" timeLoss="18.41" rerouteNo="1" devices="tripinfo_vehicle_46 routing_vehicle_46 emissions_vehicle_46 battery_vehicle_46" vType="human" speedFactor="1.00" vaporized="">
        <emissions CO_abs="0" CO2_abs="0" HC_abs="0" PMx_abs="0" NOx_abs="0" fuel_abs="0" electricity_abs="57.626541"/>
    </tripinfo>
    <tripinfo id="vehicle_53" depart="8.00" departLane="road0_0" departPos="4.10" departPosLat="0.00" departSpeed="1.58" departDelay="2.80" arrival="69.20" arrivalLane="-road1_0" arrivalPos="19.96" arrivalPosLat="0.00" arrivalSpeed="12.14" duration="61.20" routeLength="289.97" waitingTime="24.40" waitingCount="2" stopTime="0.00" timeLoss="38.98" rerouteNo="0" devices="tripinfo_vehicle_53 emissions_vehicle_53 battery_vehicle_53" vType="human" speedFactor="1.10" vaporized="">
        <emissions CO_abs="0" CO2_abs="0" HC_abs="0" PMx_abs="0" NOx_abs="0" fuel_abs="0" electricity_abs="95.481684"/>
    </tripinfo>
    <tripinfo id="vehicle_45" depart="42.00" departLane="road1_0" departPos="4.10" departPosLat="0.00" departSpeed="1.10" departDelay="26.00" arrival="70.40" arrivalLane="-road0_0" arrivalPos="19.96" arrivalPosLat="0.00" arrivalSpeed="11.88" duration="28.40" routeLength="122.77" waitingTime="2.80" waitingCount="1" stopTime="0.00" timeLoss="18.37" rerouteNo="1" devices="tripinfo_vehicle_45 routing_vehicle_45 emissions_vehicle_45 battery_vehicle_45" vType="human" speedFactor="1.09" vaporized="">
        <emissions CO_abs="0" CO2_abs="0" HC_abs="0" PMx_abs="0" NOx_abs="0" fuel_abs="0" electricity_abs="54.029697"/>
    </tripinfo>
    <tripinfo id="vehicle_59" depart="38.00" departLane="road0_0" departPos="4.10" departPosLat="0.00" departSpeed="1.32" departDelay="31.20" arrival="71.20" arrivalLane="-road1_0" arrivalPos="19.96" arrivalPosLat="0.00" arrivalSpeed="11.80" duration="33.20" routeLength="289.97" waitingTime="0.00" waitingCount="0" stopTime="0.00" timeLoss="10.23" rerouteNo="0" devices="tripinfo_vehicle_59 emissions_vehicle_59 battery_vehicle_59" vType="human" speedFactor="0.97" vaporized="">
        <emissions CO_abs="0" CO2_abs="0" HC_abs="0" PMx_abs="0" NOx_abs="0" fuel_abs="0" electricity_abs="93.515843"/>
    </tripinfo>
    <tripinfo id="vehicle_19" depart="53.20" departLane="road0_0" departPos="4.10" departPosLat="0.00" departSpeed="1.52" departDelay="40.80" arrival="72.00" arrivalLane="-road3_0" arrivalPos="19.96" arrivalPosLat="0.00" arrivalSpeed="12.65" duration="18.80" routeLength="122.77" waitingTime="0.00" waitingCount="0" stopTime="0.00" timeLoss="8.51" rerouteNo="0" devices="tripinfo_vehicle_19 emissions_vehicle_19 battery_vehicle_19" vType="human" speedFactor="1.16" vaporized="">
        <emissions CO_abs="0" CO2_abs="0" HC_abs="0" PMx_abs="0" NOx_abs="0" fuel_abs="0" electricity_abs="68.385184"/>
    </tripinfo>
    <tripinfo id="rl_0" depart="40.80" departLane="road0_0" departPos="4.10" departPosLat="0.00" departSpeed="2.60" departDelay="34.00" arrival="73.20" arrivalLane="-road1_0" arrivalPos="19.96" arrivalPosLat="0.00" arrivalSpeed="7.54" duration="32.40" routeLength="289.97" waitingTime="0.00" waitingCount="0" stopTime="0.00" timeLoss="10.15" rerouteNo="0" devices="tripinfo_rl_0 emissions_rl_0 battery_rl_0 driverstaterl_0" vType="rlAnget" speedFactor="1.03" vaporized="">
        <emissions CO_abs="0" CO2_abs="0" HC_abs="0" PMx_abs="0" NOx_abs="0" fuel_abs="0" electricity_abs="75.264289"/>
    </tripinfo>
    <tripinfo id="vehicle_6" depart="36.80" departLane="road1_0" departPos="4.10" departPosLat="0.00" departSpeed="1.69" departDelay="22.00" arrival="74.00" arrivalLane="-road3_0" arrivalPos="19.96" arrivalPosLat="0.00" arrivalSpeed="10.84" duration="37.20" routeLength="206.37" waitingTime="4.80" waitingCount="1" stopTime="0.00" timeLoss="21.00" rerouteNo="1" devices="tripinfo_vehicle_6 routing_vehicle_6 emissions_vehicle_6 battery_vehicle_6" vType="human" speedFactor="1.05" vaporized="">
        <emissions CO_abs="0" CO2_abs="0" HC_abs="0" PMx_abs="0" NOx_abs="0" fuel_abs="0" electricity_abs="66.962764"/>
    </tripinfo>
    <tripinfo id="vehicle_49" depart="34.00" departLane="road1_0" departPos="4.10" departPosLat="0.00" departSpeed="1.35" departDelay="21.60" arrival="75.60" arrivalLane="-road2_0" arrivalPos="19.96" arrivalPosLat="0.00" arrivalSpeed="11.12" duration="41.60" routeLength="289.97" waitingTime="0.00" waitingCount="0" stopTime="0.00" timeLoss="15.43" rerouteNo="1" devices="tripinfo_vehicle_49 routing_vehicle_49 emissions_vehicle_49 battery_vehicle_49" vType="human" speedFactor="0.85" vaporized="">
        <emissions CO_abs="0" CO2_abs="0" HC_abs="0" PMx_abs="0" NOx_abs="0" fuel_abs="0" electricity_abs="80.541928"/>
    </tripinfo>
    <tripinfo id="vehicle_32" depart="42.80" departLane="road0_0" departPos="4.10" departPosLat="0.00" departSpeed="1.52" departDelay="32.80" arrival="76.40" arrivalLane="-road1_0" arrivalPos="19.96" arrivalPosLat="0.00" arrivalSpeed="12.81" duration="33.60" routeLength="289.97" waitingTime="0.40" waitingCount="1" stopTime="0.00" timeLoss="11.07" rerouteNo="0" devices="tripinfo_vehicle_32 emissions_vehicle_32 battery_vehicle_32" vType="human" speedFactor="1.01" vaporized="">
        <emissions CO_abs="0" CO2_abs="0" HC_abs="0" PMx_abs="0" NOx_abs="0" fuel_abs="0" electricity_abs="102.640773"/>
    </tripinfo>
    <tripinfo id="vehicle_66" depart="60.00" departLane="road1_0" departPos="4.10" departPosLat="0.00" departSpeed="2.02" departDelay="39.20" arrival="78.00" arrivalLane="-road0_0" arrivalPos="19.96" arrivalPosLat="0.00" arrivalSpeed="11.46" duration="18.00" routeLength="122.77" waitingTime="0.00" waitingCount="0" stopTime="0.00" timeLoss="6.67" rerouteNo="1" devices="tripinfo_vehicle_66 routing_vehicle_66 emissions_vehicle_66 battery_vehicle_66" vType="human" speedFactor="0.91" vaporized="">
        <emissions CO_abs="0" CO2_abs="0" HC_abs="0" PMx_abs="0" NOx_abs="0" fuel_abs="0" electricity_abs="52.829865"/>
    </tripinfo>
    <tripinfo id="vehicle_34" depart="14.40" departLane="road2_0" departPos="4.10" departPosLat="0.00" departSpeed="1.94" departDelay="5.20" arrival="80.00" arrivalLane="-road1_0" arrivalPos="19.96" arrivalPosLat="0.00" arrivalSpeed="12.10" duration="65.60" routeLength="122.77" waitingTime="46.00" waitingCount="1" stopTime="0.00" timeLoss="55.01" rerouteNo="1" devices="tripinfo_vehicle_34 routing_vehicle_34 emissions_vehicle_34 battery_vehicle_34" vType="human" speedFactor="0.99" vaporized="">
        <emissions CO_abs="0" CO2_abs="0" HC_abs="0" PMx_abs="0" NOx_abs="0" fuel_abs="0" electricity_abs="62.083741"/>
    </tripinfo>
    <tripinfo id="vehicle_21" depart="55.60" departLane="road1_0" departPos="4.10" departPosLat="0.00" departSpeed="3.81" departDelay="36.00" arrival="80.40" arrivalLane="-road3_0" arrivalPos="19.96" arrivalPosLat="0.00" arrivalSpeed="13.28" duration="24.80" routeLength="206.37" waitingTime="0.00" waitingCount="0" stopTime="0.00" timeLoss="8.30" rerouteNo="1" devices="tripinfo_vehicle_21 routing_vehicle_21 emissions_vehicle_21 battery_vehicle_21" vType="human" speedFactor="1.01" vaporized="">
        <emissions CO_abs="0" CO2_abs="0" HC_abs="0" PMx_abs="0" NOx_abs="0" fuel_abs="0" electricity_abs="84.336539"/>
    </tripinfo>
    <tripinfo id="vehicle_41" depart="16.80" departLane="road2_0" departPos="4.10" departPosLat="0.00" departSpeed="4.82" departDelay="6.80" arrival="82.00" arrivalLane="-road1_0" arrivalPos="19.96" arrivalPosLat="0.00" arrivalSpeed="11.78" duration="65.20" routeLength="122.77" waitingTime="46.00" waitingCount="1" stopTime="0.00" timeLoss="54.49" rerouteNo="1" devices="tripinfo_vehicle_41 routing_vehicle_41 emissions_vehicle_41 battery_vehicle_41" vType="human" speedFactor="0.96" vaporized="">
        <emissions CO_abs="0" CO2_abs="0" HC_abs="0" PMx_abs="0" NOx_abs="0" fuel_abs="0" electricity_abs="53.936244"/>
    </tripinfo>
    <tripinfo id="vehicle_1" depart="66.80" departLane="road1_0" departPos="4.10" departPosLat="0.00" departSpeed="2.65" departDelay="39.20" arrival="83.60" arrivalLane="-road0_0" arrivalPos="19.96" arrivalPosLat="0.00" arrivalSpeed="12.47" duration="16.80" routeLength="122.77" waitingTime="0.00" waitingCount="0" stopTime="0.00" timeLoss="5.63" rerouteNo="1" devices="tripinfo_vehicle_1 routing_vehicle_1 emissions_vehicle_1 battery_vehicle_1" vType="human" speedFactor="0.94" vaporized="">
        <emissions CO_abs="0" CO2_abs="0" HC_abs="0" PMx_abs="0" NOx_abs="0" fuel_abs="0" electricity_abs="60.494995"/>
    </tripinfo>
    <tripinfo id="vehicle_74" depart="61.20" departLane="road0_0" departPos="4.10" departPosLat="0.00" departSpeed="3.29" departDelay="46.40" arrival="84.40" arrivalLane="-road2_0" arrivalPos="19.96" arrivalPosLat="0.00" arrivalSpeed="11.89" duration="23.20" routeLength="206.37" waitingTime="0.00" waitingCount="0" stopTime="0.00" timeLoss="6.09" rerouteNo="0" devices="tripinfo_vehicle_74 emissions_vehicle_74 battery_vehicle_74" vType="human" speedFactor="0.96" vaporized="">
        <emissions CO_abs="0" CO2_abs="0" HC_abs="0" PMx_abs="0" NOx_abs="0" fuel_abs="0" electricity_abs="74.860173"/>
    </tripinfo>
    <tripinfo id="vehicle_75" depart="46.80" departLane="road0_0" departPos="4.10" departPosLat="0.00" departSpeed="1.80" departDelay="36.80" arrival="86.00" arrivalLane="-road1_0" arrivalPos="19.96" arrivalPosLat="0.00" arrivalSpeed="13.71" duration="39.20" routeLength="289.97" waitingTime="1.60" waitingCount="1" stopTime="0.00" timeLoss="16.41" rerouteNo="0" devices="tripinfo_vehicle_75 emissions_vehicle_75 battery_vehicle_75" vType="human" speedFactor="0.98" vaporized="">