<?xml version="1.0" encoding="UTF-8"?>

<!-- generated on 2025-08-10 10:49:00 by Eclipse SUMO sumo Version v1_20_0+0085-e155ab8699b
<configuration xmlns:xsi="http://www.w3.org/2001/XMLSchema-instance" xsi:noNamespaceSchemaLocation="http://sumo.dlr.de/xsd/sumoConfiguration.xsd">

    <input>
        <net-file value="../networks/roundabout.net.xml"/>
        <route-files value="../networks/routes_EIDM.rou.xml"/>
    </input>

    <output>
        <output-prefix value="35-"/>
        <battery-output.precision value="4"/>
        <tripinfo-output value="../networks/output_data/output_eidm/tripinfo/tripinfo-output.xml"/>
        <collision-output value="../networks/output_data/output_eidm/collision/collision-output.xml"/>
    </output>

    <time>
        <begin value="0"/>
        <step-length value="0.4"/>
    </time>

    <processing>
        <step-method.ballistic value="true"/>
        <lateral-resolution value="3.2"/>
        <collision.action value="warn"/>
        <collision.check-junctions value="True"/>
        <collision.mingap-factor value="0"/>
        <time-to-teleport value="-1"/>
        <random-depart-offset value="5"/>
    </processing>

    <report>
        <no-warnings value="True"/>
        <no-step-log value="True"/>
    </report>

    <emissions>
        <device.emissions.probability value="1"/>
    </emissions>

    <battery>
        <device.battery.probability value="1"/>
    </battery>

    <traci_server>
        <remote-port value="59857"/>
    </traci_server>

    <gui_only>
        <quit-on-end value="True"/>
        <start value="True"/>
        <delay value="0"/>
    </gui_only>

</configuration>
-->

<tripinfos xmlns:xsi="http://www.w3.org/2001/XMLSchema-instance" xsi:noNamespaceSchemaLocation="http://sumo.dlr.de/xsd/tripinfo_file.xsd">
    <tripinfo id="vehicle_17" depart="2.40" departLane="road3_0" departPos="4.10" departPosLat="0.00" departSpeed="5.30" departDelay="0.40" arrival="18.80" arrivalLane="-road2_0" arrivalPos="19.96" arrivalPosLat="0.00" arrivalSpeed="12.09" duration="16.40" routeLength="122.77" waitingTime="0.00" waitingCount="0" stopTime="0.00" timeLoss="5.59" rerouteNo="1" devices="tripinfo_vehicle_17 routing_vehicle_17 emissions_vehicle_17 battery_vehicle_17" vType="human" speedFactor="0.94" vaporized="">
        <emissions CO_abs="0" CO2_abs="0" HC_abs="0" PMx_abs="0" NOx_abs="0" fuel_abs="0" electricity_abs="54.295835"/>
    </tripinfo>
    <tripinfo id="vehicle_23" depart="4.00" departLane="road3_0" departPos="4.10" departPosLat="0.00" departSpeed="1.60" departDelay="1.60" arrival="22.00" arrivalLane="-road2_0" arrivalPos="19.96" arrivalPosLat="0.00" arrivalSpeed="10.88" duration="18.00" routeLength="122.77" waitingTime="0.00" waitingCount="0" stopTime="0.00" timeLoss="6.36" rerouteNo="1" devices="tripinfo_vehicle_23 routing_vehicle_23 emissions_vehicle_23 battery_vehicle_23" vType="human" speedFactor="0.89" vaporized="">
        <emissions CO_abs="0" CO2_abs="0" HC_abs="0" PMx_abs="0" NOx_abs="0" fuel_abs="0" electricity_abs="51.096633"/>
    </tripinfo>
    <tripinfo id="vehicle_19" depart="1.60" departLane="road2_0" departPos="4.10" departPosLat="0.00" departSpeed="0.10" departDelay="0.00" arrival="23.60" arrivalLane="-road0_0" arrivalPos="19.96" arrivalPosLat="0.00" arrivalSpeed="13.22" duration="22.00" routeLength="206.37" waitingTime="0.00" waitingCount="0" stopTime="0.00" timeLoss="5.62" rerouteNo="1" devices="tripinfo_vehicle_19 routing_vehicle_19 emissions_vehicle_19 battery_vehicle_19" vType="human" speedFactor="1.16" vaporized="">
        <emissions CO_abs="0" CO2_abs="0" HC_abs="0" PMx_abs="0" NOx_abs="0" fuel_abs="0" electricity_abs="91.082763"/>
    </tripinfo>
    <tripinfo id="vehicle_72" depart="1.60" departLane="road3_0" departPos="4.10" departPosLat="0.00" departSpeed="7.74" departDelay="0.00" arrival="23.60" arrivalLane="-road1_0" arrivalPos="19.96" arrivalPosLat="0.00" arrivalSpeed="12.02" duration="22.00" routeLength="206.37" waitingTime="0.00" waitingCount="0" stopTime="0.00" timeLoss="4.82" rerouteNo="1" devices="tripinfo_vehicle_72 routing_vehicle_72 emissions_vehicle_72 battery_vehicle_72" vType="human" speedFactor="0.94" vaporized="">
        <emissions CO_abs="0" CO2_abs="0" HC_abs="0" PMx_abs="0" NOx_abs="0" fuel_abs="0" electricity_abs="64.885779"/>
    </tripinfo>
    <tripinfo id="vehicle_2" depart="1.20" departLane="road0_0" departPos="4.10" departPosLat="0.00" departSpeed="6.33" departDelay="0.00" arrival="24.40" arrivalLane="-road2_0" arrivalPos="19.96" arrivalPosLat="0.00" arrivalSpeed="12.52" duration="23.20" routeLength="206.37" waitingTime="0.00" waitingCount="0" stopTime="0.00" timeLoss="6.91" rerouteNo="0" devices="tripinfo_vehicle_2 emissions_vehicle_2 battery_vehicle_2" vType="human" speedFactor="1.01" vaporized="">
        <emissions CO_abs="0" CO2_abs="0" HC_abs="0" PMx_abs="0" NOx_abs="0" fuel_abs="0" electricity_abs="71.302617"/>
    </tripinfo>
    <tripinfo id="vehicle_12" depart="4.80" departLane="road1_0" departPos="4.10" departPosLat="0.00" departSpeed="4.20" departDelay="0.00" arrival="26.00" arrivalLane="-road3_0" arrivalPos="19.96" arrivalPosLat="0.00" arrivalSpeed="11.03" duration="21.20" routeLength="206.37" waitingTime="0.00" waitingCount="0" stopTime="0.00" timeLoss="5.14" rerouteNo="1" devices="tripinfo_vehicle_12 routing_vehicle_12 emissions_vehicle_12 battery_vehicle_12" vType="human" speedFactor="1.05" vaporized="">
        <emissions CO_abs="0" CO2_abs="0" HC_abs="0" PMx_abs="0" NOx_abs="0" fuel_abs="0" electricity_abs="71.474482"/>
    </tripinfo>
    <tripinfo id="vehicle_35" depart="5.60" departLane="road0_0" departPos="4.10" departPosLat="0.00" departSpeed="0.44" departDelay="0.00" arrival="27.60" arrivalLane="-road2_0" arrivalPos="19.96" arrivalPosLat="0.00" arrivalSpeed="12.75" duration="22.00" routeLength="206.37" waitingTime="0.00" waitingCount="0" stopTime="0.00" timeLoss="5.58" rerouteNo="0" devices="tripinfo_vehicle_35 emissions_vehicle_35 battery_vehicle_35" vType="human" speedFactor="1.02" vaporized="">
        <emissions CO_abs="0" CO2_abs="0" HC_abs="0" PMx_abs="0" NOx_abs="0" fuel_abs="0" electricity_abs="87.661120"/>
    </tripinfo>
    <tripinfo id="vehicle_40" depart="4.40" departLane="road0_0" departPos="4.10" departPosLat="0.00" departSpeed="2.61" departDelay="0.00" arrival="32.00" arrivalLane="-road1_0" arrivalPos="19.96" arrivalPosLat="0.00" arrivalSpeed="12.37" duration="27.60" routeLength="289.97" waitingTime="0.00" waitingCount="0" stopTime="0.00" timeLoss="4.98" rerouteNo="0" devices="tripinfo_vehicle_40 emissions_vehicle_40 battery_vehicle_40" vType="human" speedFactor="1.03" vaporized="">
        <emissions CO_abs="0" CO2_abs="0" HC_abs="0" PMx_abs="0" NOx_abs="0" fuel_abs="0" electricity_abs="103.750769"/>
    </tripinfo>
    <tripinfo id="vehicle_53" depart="3.60" departLane="road2_0" departPos="4.10" departPosLat="0.00" departSpeed="0.16" departDelay="0.40" arrival="32.00" arrivalLane="-road3_0" arrivalPos="19.96" arrivalPosLat="0.00" arrivalSpeed="12.66" duration="28.40" routeLength="289.97" waitingTime="0.00" waitingCount="0" stopTime="0.00" timeLoss="6.08" rerouteNo="1" devices="tripinfo_vehicle_53 routing_vehicle_53 emissions_vehicle_53 battery_vehicle_53" vType="human" speedFactor="1.10" vaporized="">
        <emissions CO_abs="0" CO2_abs="0" HC_abs="0" PMx_abs="0" NOx_abs="0" fuel_abs="0" electricity_abs="107.313633"/>
    </tripinfo>
    <tripinfo id="vehicle_9" depart="7.60" departLane="road0_0" departPos="4.10" departPosLat="0.00" departSpeed="3.76" departDelay="0.80" arrival="32.40" arrivalLane="-road2_0" arrivalPos="19.96" arrivalPosLat="0.00" arrivalSpeed="11.90" duration="24.80" routeLength="206.37" waitingTime="0.00" waitingCount="0" stopTime="0.00" timeLoss="5.69" rerouteNo="0" devices="tripinfo_vehicle_9 emissions_vehicle_9 battery_vehicle_9" vType="human" speedFactor="0.86" vaporized="">
        <emissions CO_abs="0" CO2_abs="0" HC_abs="0" PMx_abs="0" NOx_abs="0" fuel_abs="0" electricity_abs="69.927395"/>
    </tripinfo>
    <tripinfo id="vehicle_13" depart="5.60" departLane="road2_0" departPos="4.10" departPosLat="0.00" departSpeed="2.94" departDelay="2.00" arrival="33.60" arrivalLane="-road3_0" arrivalPos="19.96" arrivalPosLat="0.00" arrivalSpeed="13.58" duration="28.00" routeLength="289.97" waitingTime="0.00" waitingCount="0" stopTime="0.00" timeLoss="6.01" rerouteNo="1" devices="tripinfo_vehicle_13 routing_vehicle_13 emissions_vehicle_13 battery_vehicle_13" vType="human" speedFactor="1.12" vaporized="">
        <emissions CO_abs="0" CO2_abs="0" HC_abs="0" PMx_abs="0" NOx_abs="0" fuel_abs="0" electricity_abs="113.001759"/>
    </tripinfo>
    <tripinfo id="vehicle_58" depart="6.00" departLane="road1_0" departPos="4.10" departPosLat="0.00" departSpeed="2.81" departDelay="0.80" arrival="36.40" arrivalLane="-road2_0" arrivalPos="19.96" arrivalPosLat="0.00" arrivalSpeed="12.87" duration="30.40" routeLength="289.97" waitingTime="0.00" waitingCount="0" stopTime="0.00" timeLoss="7.83" rerouteNo="1" devices="tripinfo_vehicle_58 routing_vehicle_58 emissions_vehicle_58 battery_vehicle_58" vType="human" speedFactor="1.02" vaporized="">
        <emissions CO_abs="0" CO2_abs="0" HC_abs="0" PMx_abs="0" NOx_abs="0" fuel_abs="0" electricity_abs="102.838344"/>
    </tripinfo>
    <tripinfo id="vehicle_59" depart="19.20" departLane="road2_0" departPos="4.10" departPosLat="0.00" departSpeed="1.53" departDelay="9.20" arrival="36.80" arrivalLane="-road1_0" arrivalPos="19.96" arrivalPosLat="0.00" arrivalSpeed="12.53" duration="17.60" routeLength="122.77" waitingTime="0.00" waitingCount="0" stopTime="0.00" timeLoss="6.82" rerouteNo="1" devices="tripinfo_vehicle_59 routing_vehicle_59 emissions_vehicle_59 battery_vehicle_59" vType="human" speedFactor="0.97" vaporized="">
        <emissions CO_abs="0" CO2_abs="0" HC_abs="0" PMx_abs="0" NOx_abs="0" fuel_abs="0" electricity_abs="59.858480"/>
    </tripinfo>
    <tripinfo id="vehicle_52" depart="6.40" departLane="road3_0" departPos="4.10" departPosLat="0.00" departSpeed="0.55" departDelay="3.60" arrival="39.60" arrivalLane="-road2_0" arrivalPos="19.96" arrivalPosLat="0.00" arrivalSpeed="11.51" duration="33.20" routeLength="122.77" waitingTime="14.80" waitingCount="1" stopTime="0.00" timeLoss="22.94" rerouteNo="1" devices="tripinfo_vehicle_52 routing_vehicle_52 emissions_vehicle_52 battery_vehicle_52" vType="human" speedFactor="1.02" vaporized="">
        <emissions CO_abs="0" CO2_abs="0" HC_abs="0" PMx_abs="0" NOx_abs="0" fuel_abs="0" electricity_abs="59.107730"/>
    </tripinfo>
    <tripinfo id="vehicle_79" depart="7.20" departLane="road2_0" departPos="4.10" departPosLat="0.00" departSpeed="2.13" departDelay="2.00" arrival="39.60" arrivalLane="-road3_0" arrivalPos="19.96" arrivalPosLat="0.00" arrivalSpeed="11.94" duration="32.40" routeLength="289.97" waitingTime="0.40" waitingCount="1" stopTime="0.00" timeLoss="10.29" rerouteNo="1" devices="tripinfo_vehicle_79 routing_vehicle_79 emissions_vehicle_79 battery_vehicle_79" vType="human" speedFactor="1.09" vaporized="">
        <emissions CO_abs="0" CO2_abs="0" HC_abs="0" PMx_abs="0" NOx_abs="0" fuel_abs="0" electricity_abs="102.974190"/>
    </tripinfo>
    <tripinfo id="vehicle_69" depart="25.20" departLane="road2_0" departPos="4.10" departPosLat="0.00" departSpeed="3.03" departDelay="5.20" arrival="41.60" arrivalLane="-road1_0" arrivalPos="19.96" arrivalPosLat="0.00" arrivalSpeed="12.21" duration="16.40" routeLength="122.77" waitingTime="0.00" waitingCount="0" stopTime="0.00" timeLoss="6.06" rerouteNo="1" devices="tripinfo_vehicle_69 routing_vehicle_69 emissions_vehicle_69 battery_vehicle_69" vType="human" speedFactor="1.02" vaporized="">
        <emissions CO_abs="0" CO2_abs="0" HC_abs="0" PMx_abs="0" NOx_abs="0" fuel_abs="0" electricity_abs="58.420525"/>
    </tripinfo>
    <tripinfo id="vehicle_27" depart="16.40" departLane="road2_0" departPos="4.10" departPosLat="0.00" departSpeed="1.35" departDelay="6.40" arrival="42.40" arrivalLane="-road0_0" arrivalPos="19.96" arrivalPosLat="0.00" arrivalSpeed="11.68" duration="26.00" routeLength="206.37" waitingTime="0.00" waitingCount="0" stopTime="0.00" timeLoss="8.68" rerouteNo="1" devices="tripinfo_vehicle_27 routing_vehicle_27 emissions_vehicle_27 battery_vehicle_27" vType="human" speedFactor="0.95" vaporized="">
        <emissions CO_abs="0" CO2_abs="0" HC_abs="0" PMx_abs="0" NOx_abs="0" fuel_abs="0" electricity_abs="73.659646"/>
    </tripinfo>
    <tripinfo id="vehicle_8" depart="9.60" departLane="road2_0" departPos="4.10" departPosLat="0.00" departSpeed="2.97" departDelay="3.60" arrival="43.60" arrivalLane="-road3_0" arrivalPos="19.96" arrivalPosLat="0.00" arrivalSpeed="11.69" duration="34.00" routeLength="289.97" waitingTime="0.00" waitingCount="0" stopTime="0.00" timeLoss="10.10" rerouteNo="1" devices="tripinfo_vehicle_8 routing_vehicle_8 emissions_vehicle_8 battery_vehicle_8" vType="human" speedFactor="0.94" vaporized="">
        <emissions CO_abs="0" CO2_abs="0" HC_abs="0" PMx_abs="0" NOx_abs="0" fuel_abs="0" electricity_abs="91.886628"/>
    </tripinfo>
    <tripinfo id="vehicle_54" depart="11.60" departLane="road2_0" departPos="4.10" departPosLat="0.00" departSpeed="1.26" departDelay="2.40" arrival="45.60" arrivalLane="-road3_0" arrivalPos="19.96" arrivalPosLat="0.00" arrivalSpeed="11.76" duration="34.00" routeLength="289.97" waitingTime="0.00" waitingCount="0" stopTime="0.00" timeLoss="11.67" rerouteNo="1" devices="tripinfo_vehicle_54 routing_vehicle_54 emissions_vehicle_54 battery_vehicle_54" vType="human" speedFactor="1.00" vaporized="">
        <emissions CO_abs="0" CO2_abs="0" HC_abs="0" PMx_abs="0" NOx_abs="0" fuel_abs="0" electricity_abs="97.636178"/>
    </tripinfo>
    <tripinfo id="vehicle_50" depart="21.20" departLane="road2_0" departPos="4.10" departPosLat="0.00" departSpeed="3.55" departDelay="4.80" arrival="46.80" arrivalLane="-road0_0" arrivalPos="19.96" arrivalPosLat="0.00" arrivalSpeed="11.34" duration="25.60" routeLength="206.37" waitingTime="0.00" waitingCount="0" stopTime="0.00" timeLoss="6.34" rerouteNo="1" devices="tripinfo_vehicle_50 routing_vehicle_50 emissions_vehicle_50 battery_vehicle_50" vType="human" speedFactor="0.85" vaporized="">
        <emissions CO_abs="0" CO2_abs="0" HC_abs="0" PMx_abs="0" NOx_abs="0" fuel_abs="0" electricity_abs="64.875271"/>
    </tripinfo>
    <tripinfo id="vehicle_33" depart="10.80" departLane="road0_0" departPos="4.10" departPosLat="0.00" departSpeed="4.47" departDelay="0.00" arrival="48.00" arrivalLane="-road3_0" arrivalPos="19.96" arrivalPosLat="0.00" arrivalSpeed="12.53" duration="37.20" routeLength="122.77" waitingTime="19.60" waitingCount="1" stopTime="0.00" timeLoss="27.06" rerouteNo="0" devices="tripinfo_vehicle_33 emissions_vehicle_33 battery_vehicle_33" vType="human" speedFactor="1.17" vaporized="">
        <emissions CO_abs="0" CO2_abs="0" HC_abs="0" PMx_abs="0" NOx_abs="0" fuel_abs="0" electricity_abs="61.847455"/>
    </tripinfo>
    <tripinfo id="vehicle_70" depart="27.20" departLane="road2_0" departPos="4.10" departPosLat="0.00" departSpeed="2.89" departDelay="6.80" arrival="51.60" arrivalLane="-road0_0" arrivalPos="19.96" arrivalPosLat="0.00" arrivalSpeed="12.24" duration="24.40" routeLength="206.37" waitingTime="0.00" waitingCount="0" stopTime="0.00" timeLoss="8.08" rerouteNo="1" devices="tripinfo_vehicle_70 routing_vehicle_70 emissions_vehicle_70 battery_vehicle_70" vType="human" speedFactor="1.02" vaporized="">
        <emissions CO_abs="0" CO2_abs="0" HC_abs="0" PMx_abs="0" NOx_abs="0" fuel_abs="0" electricity_abs="77.383063"/>
    </tripinfo>
    <tripinfo id="vehicle_36" depart="30.00" departLane="road3_0" departPos="4.10" departPosLat="0.00" departSpeed="2.22" departDelay="25.60" arrival="54.40" arrivalLane="-road1_0" arrivalPos="19.96" arrivalPosLat="0.00" arrivalSpeed="11.98" duration="24.40" routeLength="206.37" waitingTime="0.00" waitingCount="0" stopTime="0.00" timeLoss="7.74" rerouteNo="1" devices="tripinfo_vehicle_36 routing_vehicle_36 emissions_vehicle_36 battery_vehicle_36" vType="human" speedFactor="0.97" vaporized="">
        <emissions CO_abs="0" CO2_abs="0" HC_abs="0" PMx_abs="0" NOx_abs="0" fuel_abs="0" electricity_abs="75.839959"/>
    </tripinfo>
    <tripinfo id="vehicle_42" depart="31.60" departLane="road2_0" departPos="4.10" departPosLat="0.00" departSpeed="2.47" departDelay="9.60" arrival="55.60" arrivalLane="-road0_0" arrivalPos="19.96" arrivalPosLat="0.00" arrivalSpeed="12.34" duration="24.00" routeLength="206.37" waitingTime="0.00" waitingCount="0" stopTime="0.00" timeLoss="7.81" rerouteNo="1" devices="tripinfo_vehicle_42 routing_vehicle_42 emissions_vehicle_42 battery_vehicle_42" vType="human" speedFactor="1.09" vaporized="">
        <emissions CO_abs="0" CO2_abs="0" HC_abs="0" PMx_abs="0" NOx_abs="0" fuel_abs="0" electricity_abs="84.464419"/>
    </tripinfo>
    <tripinfo id="vehicle_32" depart="22.80" departLane="road2_0" departPos="4.10" departPosLat="0.00" departSpeed="1.66" departDelay="3.20" arrival="56.40" arrivalLane="-road3_0" arrivalPos="19.96" arrivalPosLat="0.00" arrivalSpeed="13.04" duration="33.60" routeLength="289.97" waitingTime="0.00" waitingCount="0" stopTime="0.00" timeLoss="11.20" rerouteNo="1" devices="tripinfo_vehicle_32 routing_vehicle_32 emissions_vehicle_32 battery_vehicle_32" vType="human" speedFactor="1.01" vaporized="">
        <emissions CO_abs="0" CO2_abs="0" HC_abs="0" PMx_abs="0" NOx_abs="0" fuel_abs="0" electricity_abs="100.436812"/>
    </tripinfo>
    <tripinfo id="vehicle_78" depart="32.40" departLane="road3_0" departPos="4.10" departPosLat="0.00" departSpeed="3.94" departDelay="28.00" arrival="56.80" arrivalLane="-road1_0" arrivalPos="19.96" arrivalPosLat="0.00" arrivalSpeed="12.38" duration="24.40" routeLength="206.37" waitingTime="0.00" waitingCount="0" stopTime="0.00" timeLoss="7.95" rerouteNo="1" devices="tripinfo_vehicle_78 routing_vehicle_78 emissions_vehicle_78 battery_vehicle_78" vType="human" speedFactor="1.01" vaporized="">
        <emissions CO_abs="0" CO2_abs="0" HC_abs="0" PMx_abs="0" NOx_abs="0" fuel_abs="0" electricity_abs="76.921792"/>
    </tripinfo>
    <tripinfo id="vehicle_56" depart="8.80" departLane="road3_0" departPos="4.10" departPosLat="0.00" departSpeed="0.34" departDelay="6.00" arrival="58.40" arrivalLane="-road0_0" arrivalPos="19.96" arrivalPosLat="0.00" arrivalSpeed="12.45" duration="49.60" routeLength="289.97" waitingTime="13.20" waitingCount="1" stopTime="0.00" timeLoss="24.57" rerouteNo="1" devices="tripinfo_vehicle_56 routing_vehicle_56 emissions_vehicle_56 battery_vehicle_56" vType="human" speedFactor="0.90" vaporized="">
        <emissions CO_abs="0" CO2_abs="0" HC_abs="0" PMx_abs="0" NOx_abs="0" fuel_abs="0" electricity_abs="95.562275"/>
    </tripinfo>
    <tripinfo id="vehicle_60" depart="29.20" departLane="road2_0" departPos="4.10" departPosLat="0.00" departSpeed="1.66" departDelay="8.40" arrival="58.80" arrivalLane="-road3_0" arrivalPos="19.96" arrivalPosLat="0.00" arrivalSpeed="12.13" duration="29.60" routeLength="289.97" waitingTime="0.00" waitingCount="0" stopTime="0.00" timeLoss="7.52" rerouteNo="1" devices="tripinfo_vehicle_60 routing_vehicle_60 emissions_vehicle_60 battery_vehicle_60" vType="human" speedFactor="1.08" vaporized="">
        <emissions CO_abs="0" CO2_abs="0" HC_abs="0" PMx_abs="0" NOx_abs="0" fuel_abs="0" electricity_abs="100.982580"/>
    </tripinfo>
    <tripinfo id="vehicle_51" depart="34.00" departLane="road3_0" departPos="4.10" departPosLat="0.00" departSpeed="3.47" departDelay="26.80" arrival="59.20" arrivalLane="-road1_0" arrivalPos="19.96" arrivalPosLat="0.00" arrivalSpeed="12.41" duration="25.20" routeLength="206.37" waitingTime="0.00" waitingCount="0" stopTime="0.00" timeLoss="9.05" rerouteNo="1" devices="tripinfo_vehicle_51 routing_vehicle_51 emissions_vehicle_51 battery_vehicle_51" vType="human" speedFactor="1.17" vaporized="">
        <emissions CO_abs="0" CO2_abs="0" HC_abs="0" PMx_abs="0" NOx_abs="0" fuel_abs="0" electricity_abs="77.543002"/>
    </tripinfo>
    <tripinfo id="vehicle_26" depart="16.80" departLane="road0_0" departPos="4.10" departPosLat="0.00" departSpeed="3.11" departDelay="0.00" arrival="60.00" arrivalLane="-road2_0" arrivalPos="19.96" arrivalPosLat="0.00" arrivalSpeed="12.29" duration="43.20" routeLength="206.37" waitingTime="15.60" waitingCount="1" stopTime="0.00" timeLoss="25.31" rerouteNo="0" devices="tripinfo_vehicle_26 emissions_vehicle_26 battery_vehicle_26" vType="human" speedFactor="0.92" vaporized="">
        <emissions CO_abs="0" CO2_abs="0" HC_abs="0" PMx_abs="0" NOx_abs="0" fuel_abs="0" electricity_abs="77.422196"/>
    </tripinfo>
    <tripinfo id="rl_0" depart="11.20" departLane="road3_0" departPos="4.10" departPosLat="0.00" departSpeed="1.06" departDelay="8.40" arrival="60.80" arrivalLane="-road0_0" arrivalPos="19.96" arrivalPosLat="0.00" arrivalSpeed="7.79" duration="49.60" routeLength="289.97" waitingTime="11.60" waitingCount="1" stopTime="0.00" timeLoss="27.33" rerouteNo="1" devices="tripinfo_rl_0 routing_rl_0 emissions_rl_0 battery_rl_0 driverstaterl_0" vType="rlAnget" speedFactor="1.03" vaporized="">
        <emissions CO_abs="0" CO2_abs="0" HC_abs="0" PMx_abs="0" NOx_abs="0" fuel_abs="0" electricity_abs="78.052881"/>
    </tripinfo>
    <tripinfo id="vehicle_45" depart="36.00" departLane="road3_0" departPos="4.10" departPosLat="0.00" departSpeed="2.26" departDelay="27.60" arrival="61.60" arrivalLane="-road1_0" arrivalPos="19.96" arrivalPosLat="0.00" arrivalSpeed="12.84" duration="25.60" routeLength="206.37" waitingTime="0.00" waitingCount="0" stopTime="0.00" timeLoss="9.33" rerouteNo="1" devices="tripinfo_vehicle_45 routing_vehicle_45 emissions_vehicle_45 battery_vehicle_45" vType="human" speedFactor="1.09" vaporized="">
        <emissions CO_abs="0" CO2_abs="0" HC_abs="0" PMx_abs="0" NOx_abs="0" fuel_abs="0" electricity_abs="81.780751"/>
    </tripinfo>
    <tripinfo id="vehicle_7" depart="34.00" departLane="road2_0" departPos="4.10" departPosLat="0.00" departSpeed="2.33" departDelay="11.60" arrival="62.80" arrivalLane="-road0_0" arrivalPos="19.96" arrivalPosLat="0.00" arrivalSpeed="11.75" duration="28.80" routeLength="206.37" waitingTime="0.00" waitingCount="0" stopTime="0.00" timeLoss="10.59" rerouteNo="1" devices="tripinfo_vehicle_7 routing_vehicle_7 emissions_vehicle_7 battery_vehicle_7" vType="human" speedFactor="0.89" vaporized="">
        <emissions CO_abs="0" CO2_abs="0" HC_abs="0" PMx_abs="0" NOx_abs="0" fuel_abs="0" electricity_abs="69.745223"/>
    </tripinfo>
    <tripinfo id="vehicle_28" depart="38.40" departLane="road3_0" departPos="4.10" departPosLat="0.00" departSpeed="2.88" departDelay="29.60" arrival="63.60" arrivalLane="-road1_0" arrivalPos="19.96" arrivalPosLat="0.00" arrivalSpeed="12.77" duration="25.20" routeLength="206.37" waitingTime="0.00" waitingCount="0" stopTime="0.00" timeLoss="8.84" rerouteNo="1" devices="tripinfo_vehicle_28 routing_vehicle_28 emissions_vehicle_28 battery_vehicle_28" vType="human" speedFactor="1.13" vaporized="">
        <emissions CO_abs="0" CO2_abs="0" HC_abs="0" PMx_abs="0" NOx_abs="0" fuel_abs="0" electricity_abs="82.484067"/>
    </tripinfo>
    <tripinfo id="vehicle_44" depart="43.20" departLane="road3_0" departPos="4.10" departPosLat="0.00" departSpeed="3.47" departDelay="29.60" arrival="65.60" arrivalLane="-road2_0" arrivalPos="19.96" arrivalPosLat="0.00" arrivalSpeed="12.98" duration="22.40" routeLength="122.77" waitingTime="3.20" waitingCount="1" stopTime="0.00" timeLoss="12.16" rerouteNo="1" devices="tripinfo_vehicle_44 routing_vehicle_44 emissions_vehicle_44 battery_vehicle_44" vType="human" speedFactor="1.04" vaporized="">
        <emissions CO_abs="0" CO2_abs="0" HC_abs="0" PMx_abs="0" NOx_abs="0" fuel_abs="0" electricity_abs="64.987025"/>
    </tripinfo>
    <tripinfo id="vehicle_10" depart="12.80" departLane="road0_0" departPos="4.10" departPosLat="0.00" departSpeed="4.94" departDelay="0.00" arrival="66.00" arrivalLane="-road1_0" arrivalPos="19.96" arrivalPosLat="0.00" arrivalSpeed="13.15" duration="53.20" routeLength="289.97" waitingTime="18.40" waitingCount="1" stopTime="0.00" timeLoss="31.01" rerouteNo="0" devices="tripinfo_vehicle_10 emissions_vehicle_10 battery_vehicle_10" vType="human" speedFactor="1.09" vaporized="">
        <emissions CO_abs="0" CO2_abs="0" HC_abs="0" PMx_abs="0" NOx_abs="0" fuel_abs="0" electricity_abs="98.597086"/>
    </tripinfo>
    <tripinfo id="vehicle_37" depart="51.60" departLane="road1_0" departPos="4.10" departPosLat="0.00" departSpeed="1.18" departDelay="43.60" arrival="68.40" arrivalLane="-road0_0" arrivalPos="19.96" arrivalPosLat="0.00" arrivalSpeed="11.96" duration="16.80" routeLength="122.77" waitingTime="0.00" waitingCount="0" stopTime="0.00" timeLoss="6.95" rerouteNo="1" devices="tripinfo_vehicle_37 routing_vehicle_37 emissions_vehicle_37 battery_vehicle_37" vType="human" speedFactor="1.18" vaporized="">
        <emissions CO_abs="0" CO2_abs="0" HC_abs="0" PMx_abs="0" NOx_abs="0" fuel_abs="0" electricity_abs="61.584542"/>
    </tripinfo>
    <tripinfo id="vehicle_38" depart="40.00" departLane="road0_0" departPos="4.10" departPosLat="0.00" departSpeed="4.16" departDelay="22.40" arrival="70.40" arrivalLane="-road2_0" arrivalPos="19.96" arrivalPosLat="0.00" arrivalSpeed="13.44" duration="30.40" routeLength="206.37" waitingTime="2.80" waitingCount="1" stopTime="0.00" timeLoss="14.09" rerouteNo="0" devices="tripinfo_vehicle_38 emissions_vehicle_38 battery_vehicle_38" vType="human" speedFactor="1.10" vaporized="">
        <emissions CO_abs="0" CO2_abs="0" HC_abs="0" PMx_abs="0" NOx_abs="0" fuel_abs="0" electricity_abs="82.405852"/>
    </tripinfo>
    <tripinfo id="vehicle_67" depart="8.00" departLane="road1_0" departPos="4.10" departPosLat="0.00" departSpeed="3.47" departDelay="2.80" arrival="71.20" arrivalLane="-road3_0" arrivalPos="19.96" arrivalPosLat="0.00" arrivalSpeed="11.67" duration="63.20" routeLength="206.37" waitingTime="36.00" waitingCount="1" stopTime="0.00" timeLoss="45.20" rerouteNo="1" devices="tripinfo_vehicle_67 routing_vehicle_67 emissions_vehicle_67 battery_vehicle_67" vType="human" speedFactor="0.91" vaporized="">
        <emissions CO_abs="0" CO2_abs="0" HC_abs="0" PMx_abs="0" NOx_abs="0" fuel_abs="0" electricity_abs="70.221028"/>
    </tripinfo>
    <tripinfo id="vehicle_49" depart="54.00" departLane="road0_0" departPos="4.10" departPosLat="0.00" departSpeed="2.75" departDelay="25.60" arrival="73.60" arrivalLane="-road3_0" arrivalPos="19.96" arrivalPosLat="0.00" arrivalSpeed="10.97" duration="19.60" routeLength="122.77" waitingTime="0.00" waitingCount="0" stopTime="0.00" timeLoss="7.31" rerouteNo="0" devices="tripinfo_vehicle_49 emissions_vehicle_49 battery_vehicle_49" vType="human" speedFactor="0.85" vaporized="">
        <emissions CO_abs="0" CO2_abs="0" HC_abs="0" PMx_abs="0" NOx_abs="0" fuel_abs="0" electricity_abs="48.586389"/>
    </tripinfo>
    <tripinfo id="vehicle_6" depart="59.20" departLane="road1_0" departPos="4.10" departPosLat="0.00" departSpeed="3.00" departDelay="48.00" arrival="74.80" arrivalLane="-road0_0" arrivalPos="19.96" arrivalPosLat="0.00" arrivalSpeed="12.30" duration="15.60" routeLength="122.77" waitingTime="0.00" waitingCount="0" stopTime="0.00" timeLoss="5.44" rerouteNo="1" devices="tripinfo_vehicle_6 routing_vehicle_6 emissions_vehicle_6 battery_vehicle_6" vType="human" speedFactor="1.05" vaporized="">
        <emissions CO_abs="0" CO2_abs="0" HC_abs="0" PMx_abs="0" NOx_abs="0" fuel_abs="0" electricity_abs="61.638068"/>
    </tripinfo>
    <tripinfo id="vehicle_16" depart="45.20" departLane="road3_0" departPos="4.10" departPosLat="0.00" departSpeed="1.99" departDelay="30.00" arrival="76.40" arrivalLane="-road1_0" arrivalPos="19.96" arrivalPosLat="0.00" arrivalSpeed="11.11" duration="31.20" routeLength="206.37" waitingTime="2.40" waitingCount="1" stopTime="0.00" timeLoss="12.72" rerouteNo="1" devices="tripinfo_vehicle_16 routing_vehicle_16 emissions_vehicle_16 battery_vehicle_16" vType="human" speedFactor="0.88" vaporized="">
        <emissions CO_abs="0" CO2_abs="0" HC_abs="0" PMx_abs="0" NOx_abs="0" fuel_abs="0" electricity_abs="69.686192"/>
    </tripinfo>
    <tripinfo id="vehicle_22" depart="61.20" departLane="road1_0" departPos="4.10" departPosLat="0.00" departSpeed="2.69" departDelay="50.00" arrival="77.60" arrivalLane="-road0_0" arrivalPos="19.96" arrivalPosLat="0.00" arrivalSpeed="11.65" duration="16.40" routeLength="122.77" waitingTime="0.00" waitingCount="0" stopTime="0.00" timeLoss="5.77" rerouteNo="1" devices="tripinfo_vehicle_22 routing_vehicle_22 emissions_vehicle_22 battery_vehicle_22" vType="human" speedFactor="0.97" vaporized="">
        <emissions CO_abs="0" CO2_abs="0" HC_abs="0" PMx_abs="0" NOx_abs="0" fuel_abs="0" electricity_abs="56.509103"/>
    </tripinfo>
    <tripinfo id="vehicle_5" depart="37.60" departLane="road0_0" departPos="4.10" departPosLat="0.00" departSpeed="1.11" departDelay="20.40" arrival="79.20" arrivalLane="-road1_0" arrivalPos="19.96" arrivalPosLat="0.00" arrivalSpeed="10.53" duration="41.60" routeLength="289.97" waitingTime="3.60" waitingCount="1" stopTime="0.00" timeLoss="14.82" rerouteNo="0" devices="tripinfo_vehicle_5 emissions_vehicle_5 battery_vehicle_5" vType="human" speedFactor="0.83" vaporized="">
        <emissions CO_abs="0" CO2_abs="0" HC_abs="0" PMx_abs="0" NOx_abs="0" fuel_abs="0" electricity_abs="77.838791"/>
    </tripinfo>
    <tripinfo id="vehicle_47" depart="10.00" departLane="road1_0" departPos="4.10" departPosLat="0.00" departSpeed="3.38" departDelay="3.60" arrival="80.00" arrivalLane="-road2_0" arrivalPos="19.96" arrivalPosLat="0.00" arrivalSpeed="11.57" duration="70.00" routeLength="289.97" waitingTime="34.00" waitingCount="1" stopTime="0.00" timeLoss="45.07" rerouteNo="1" devices="tripinfo_vehicle_47 routing_vehicle_47 emissions_vehicle_47 battery_vehicle_47" vType="human" speedFactor="0.90" vaporized="">