<?xml version="1.0" encoding="UTF-8"?>

<!-- generated on 2025-08-10 10:49:07 by Eclipse SUMO sumo Version v1_20_0+0085-e155ab8699b
<configuration xmlns:xsi="http://www.w3.org/2001/XMLSchema-instance" xsi:noNamespaceSchemaLocation="http://sumo.dlr.de/xsd/sumoConfiguration.xsd">

    <input>
        <net-file value="../networks/roundabout.net.xml"/>
        <route-files value="../networks/routes_EIDM.rou.xml"/>
    </input>

    <output>
        <output-prefix value="41-"/>
        <battery-output.precision value="4"/>
        <tripinfo-output value="../networks/output_data/output_eidm/tripinfo/tripinfo-output.xml"/>
        <collision-output value="../networks/output_data/output_eidm/collision/collision-output.xml"/>
    </output>

    <time>
        <begin value="0"/>
        <step-length value="0.4"/>
    </time>

    <processing>
        <step-method.ballistic value="true"/>
        <lateral-resolution value="3.2"/>
        <collision.action value="warn"/>
        <collision.check-junctions value="True"/>
        <collision.mingap-factor value="0"/>
        <time-to-teleport value="-1"/>
        <random-depart-offset value="5"/>
    </processing>

    <report>
        <no-warnings value="True"/>
        <no-step-log value="True"/>
    </report>

    <emissions>
        <device.emissions.probability value="1"/>
    </emissions>

    <battery>
        <device.battery.probability value="1"/>
    </battery>

    <traci_server>
        <remote-port value="48661"/>
    </traci_server>

    <gui_only>
        <quit-on-end value="True"/>
        <start value="True"/>
        <delay value="0"/>
    </gui_only>

</configuration>
-->

<tripinfos xmlns:xsi="http://www.w3.org/2001/XMLSchema-instance" xsi:noNamespaceSchemaLocation="http://sumo.dlr.de/xsd/tripinfo_file.xsd">
    <tripinfo id="vehicle_62" depart="2.40" departLane="road3_0" departPos="4.10" departPosLat="0.00" departSpeed="0.16" departDelay="0.40" arrival="18.00" arrivalLane="-road2_0" arrivalPos="19.96" arrivalPosLat="0.00" arrivalSpeed="12.50" duration="15.60" routeLength="122.77" waitingTime="0.00" waitingCount="0" stopTime="0.00" timeLoss="5.23" rerouteNo="1" devices="tripinfo_vehicle_62 routing_vehicle_62 emissions_vehicle_62 battery_vehicle_62" vType="human" speedFactor="1.02" vaporized="">
        <emissions CO_abs="0" CO2_abs="0" HC_abs="0" PMx_abs="0" NOx_abs="0" fuel_abs="0" electricity_abs="65.283766"/>
    </tripinfo>
    <tripinfo id="vehicle_71" depart="1.60" departLane="road3_0" departPos="4.10" departPosLat="0.00" departSpeed="8.23" departDelay="0.00" arrival="22.80" arrivalLane="-road1_0" arrivalPos="19.96" arrivalPosLat="0.00" arrivalSpeed="12.36" duration="21.20" routeLength="206.37" waitingTime="0.00" waitingCount="0" stopTime="0.00" timeLoss="4.41" rerouteNo="1" devices="tripinfo_vehicle_71 routing_vehicle_71 emissions_vehicle_71 battery_vehicle_71" vType="human" speedFactor="0.97" vaporized="">
        <emissions CO_abs="0" CO2_abs="0" HC_abs="0" PMx_abs="0" NOx_abs="0" fuel_abs="0" electricity_abs="67.955595"/>
    </tripinfo>
    <tripinfo id="vehicle_32" depart="0.40" departLane="road0_0" departPos="4.10" departPosLat="0.00" departSpeed="0.10" departDelay="0.00" arrival="23.20" arrivalLane="-road2_0" arrivalPos="19.96" arrivalPosLat="0.00" arrivalSpeed="11.55" duration="22.80" routeLength="206.37" waitingTime="0.00" waitingCount="0" stopTime="0.00" timeLoss="6.41" rerouteNo="0" devices="tripinfo_vehicle_32 emissions_vehicle_32 battery_vehicle_32" vType="human" speedFactor="1.01" vaporized="">
        <emissions CO_abs="0" CO2_abs="0" HC_abs="0" PMx_abs="0" NOx_abs="0" fuel_abs="0" electricity_abs="77.286773"/>
    </tripinfo>
    <tripinfo id="vehicle_34" depart="3.20" departLane="road1_0" departPos="4.10" departPosLat="0.00" departSpeed="3.75" departDelay="0.00" arrival="25.60" arrivalLane="-road3_0" arrivalPos="19.96" arrivalPosLat="0.00" arrivalSpeed="10.98" duration="22.40" routeLength="206.37" waitingTime="0.00" waitingCount="0" stopTime="0.00" timeLoss="6.07" rerouteNo="1" devices="tripinfo_vehicle_34 routing_vehicle_34 emissions_vehicle_34 battery_vehicle_34" vType="human" speedFactor="0.99" vaporized="">
        <emissions CO_abs="0" CO2_abs="0" HC_abs="0" PMx_abs="0" NOx_abs="0" fuel_abs="0" electricity_abs="71.634444"/>
    </tripinfo>
    <tripinfo id="vehicle_60" depart="6.80" departLane="road3_0" departPos="4.10" departPosLat="0.00" departSpeed="3.43" departDelay="1.20" arrival="25.60" arrivalLane="-road2_0" arrivalPos="19.96" arrivalPosLat="0.00" arrivalSpeed="12.13" duration="18.80" routeLength="122.77" waitingTime="0.00" waitingCount="0" stopTime="0.00" timeLoss="8.46" rerouteNo="1" devices="tripinfo_vehicle_60 routing_vehicle_60 emissions_vehicle_60 battery_vehicle_60" vType="human" speedFactor="1.08" vaporized="">
        <emissions CO_abs="0" CO2_abs="0" HC_abs="0" PMx_abs="0" NOx_abs="0" fuel_abs="0" electricity_abs="59.659759"/>
    </tripinfo>
    <tripinfo id="vehicle_33" depart="0.40" departLane="road2_0" departPos="4.10" departPosLat="0.00" departSpeed="8.17" departDelay="0.00" arrival="28.00" arrivalLane="-road3_0" arrivalPos="19.96" arrivalPosLat="0.00" arrivalSpeed="12.94" duration="27.60" routeLength="289.97" waitingTime="0.00" waitingCount="0" stopTime="0.00" timeLoss="5.45" rerouteNo="1" devices="tripinfo_vehicle_33 routing_vehicle_33 emissions_vehicle_33 battery_vehicle_33" vType="human" speedFactor="1.17" vaporized="">
        <emissions CO_abs="0" CO2_abs="0" HC_abs="0" PMx_abs="0" NOx_abs="0" fuel_abs="0" electricity_abs="91.682507"/>
    </tripinfo>
    <tripinfo id="vehicle_11" depart="0.00" departLane="road1_0" departPos="4.10" departPosLat="0.00" departSpeed="6.33" departDelay="0.00" arrival="28.40" arrivalLane="-road2_0" arrivalPos="19.96" arrivalPosLat="0.00" arrivalSpeed="12.29" duration="28.40" routeLength="289.97" waitingTime="0.00" waitingCount="0" stopTime="0.00" timeLoss="6.11" rerouteNo="1" devices="tripinfo_vehicle_11 routing_vehicle_11 emissions_vehicle_11 battery_vehicle_11" vType="human" speedFactor="1.03" vaporized="">
        <emissions CO_abs="0" CO2_abs="0" HC_abs="0" PMx_abs="0" NOx_abs="0" fuel_abs="0" electricity_abs="93.154882"/>
    </tripinfo>
    <tripinfo id="vehicle_1" depart="1.20" departLane="road2_0" departPos="4.10" departPosLat="0.00" departSpeed="5.16" departDelay="0.40" arrival="30.80" arrivalLane="-road3_0" arrivalPos="19.96" arrivalPosLat="0.00" arrivalSpeed="11.79" duration="29.60" routeLength="289.97" waitingTime="0.00" waitingCount="0" stopTime="0.00" timeLoss="6.09" rerouteNo="1" devices="tripinfo_vehicle_1 routing_vehicle_1 emissions_vehicle_1 battery_vehicle_1" vType="human" speedFactor="0.94" vaporized="">
        <emissions CO_abs="0" CO2_abs="0" HC_abs="0" PMx_abs="0" NOx_abs="0" fuel_abs="0" electricity_abs="90.166782"/>
    </tripinfo>
    <tripinfo id="vehicle_68" depart="2.40" departLane="road0_0" departPos="4.10" departPosLat="0.00" departSpeed="4.27" departDelay="0.40" arrival="30.80" arrivalLane="-road1_0" arrivalPos="19.96" arrivalPosLat="0.00" arrivalSpeed="12.41" duration="28.40" routeLength="289.97" waitingTime="0.00" waitingCount="0" stopTime="0.00" timeLoss="6.12" rerouteNo="0" devices="tripinfo_vehicle_68 emissions_vehicle_68 battery_vehicle_68" vType="human" speedFactor="1.04" vaporized="">
        <emissions CO_abs="0" CO2_abs="0" HC_abs="0" PMx_abs="0" NOx_abs="0" fuel_abs="0" electricity_abs="101.269777"/>
    </tripinfo>
    <tripinfo id="vehicle_40" depart="2.40" departLane="road2_0" departPos="4.10" departPosLat="0.00" departSpeed="1.52" departDelay="0.80" arrival="32.80" arrivalLane="-road3_0" arrivalPos="19.96" arrivalPosLat="0.00" arrivalSpeed="12.11" duration="30.40" routeLength="289.97" waitingTime="0.00" waitingCount="0" stopTime="0.00" timeLoss="8.11" rerouteNo="1" devices="tripinfo_vehicle_40 routing_vehicle_40 emissions_vehicle_40 battery_vehicle_40" vType="human" speedFactor="1.03" vaporized="">
        <emissions CO_abs="0" CO2_abs="0" HC_abs="0" PMx_abs="0" NOx_abs="0" fuel_abs="0" electricity_abs="99.760731"/>
    </tripinfo>
    <tripinfo id="vehicle_70" depart="1.20" departLane="road1_0" departPos="4.10" departPosLat="0.00" departSpeed="5.28" departDelay="0.00" arrival="34.00" arrivalLane="-road2_0" arrivalPos="19.96" arrivalPosLat="0.00" arrivalSpeed="12.86" duration="32.80" routeLength="289.97" waitingTime="0.80" waitingCount="1" stopTime="0.00" timeLoss="10.35" rerouteNo="1" devices="tripinfo_vehicle_70 routing_vehicle_70 emissions_vehicle_70 battery_vehicle_70" vType="human" speedFactor="1.02" vaporized="">
        <emissions CO_abs="0" CO2_abs="0" HC_abs="0" PMx_abs="0" NOx_abs="0" fuel_abs="0" electricity_abs="99.961573"/>
    </tripinfo>
    <tripinfo id="rl_0" depart="4.80" departLane="road3_0" departPos="4.10" departPosLat="0.00" departSpeed="3.36" departDelay="1.20" arrival="34.40" arrivalLane="-road0_0" arrivalPos="19.96" arrivalPosLat="0.00" arrivalSpeed="7.58" duration="29.60" routeLength="289.97" waitingTime="0.00" waitingCount="0" stopTime="0.00" timeLoss="7.23" rerouteNo="1" devices="tripinfo_rl_0 routing_rl_0 emissions_rl_0 battery_rl_0 driverstaterl_0" vType="rlAnget" speedFactor="1.03" vaporized="">
        <emissions CO_abs="0" CO2_abs="0" HC_abs="0" PMx_abs="0" NOx_abs="0" fuel_abs="0" electricity_abs="77.579607"/>
    </tripinfo>
    <tripinfo id="vehicle_69" depart="18.00" departLane="road2_0" departPos="4.10" departPosLat="0.00" departSpeed="1.55" departDelay="13.20" arrival="36.00" arrivalLane="-road1_0" arrivalPos="19.96" arrivalPosLat="0.00" arrivalSpeed="12.06" duration="18.00" routeLength="122.77" waitingTime="0.00" waitingCount="0" stopTime="0.00" timeLoss="7.33" rerouteNo="1" devices="tripinfo_vehicle_69 routing_vehicle_69 emissions_vehicle_69 battery_vehicle_69" vType="human" speedFactor="1.02" vaporized="">
        <emissions CO_abs="0" CO2_abs="0" HC_abs="0" PMx_abs="0" NOx_abs="0" fuel_abs="0" electricity_abs="58.763856"/>
    </tripinfo>
    <tripinfo id="vehicle_17" depart="5.20" departLane="road1_0" departPos="4.10" departPosLat="0.00" departSpeed="3.45" departDelay="1.20" arrival="36.80" arrivalLane="-road3_0" arrivalPos="19.96" arrivalPosLat="0.00" arrivalSpeed="11.67" duration="31.60" routeLength="206.37" waitingTime="4.40" waitingCount="1" stopTime="0.00" timeLoss="14.34" rerouteNo="1" devices="tripinfo_vehicle_17 routing_vehicle_17 emissions_vehicle_17 battery_vehicle_17" vType="human" speedFactor="0.94" vaporized="">
        <emissions CO_abs="0" CO2_abs="0" HC_abs="0" PMx_abs="0" NOx_abs="0" fuel_abs="0" electricity_abs="72.197111"/>
    </tripinfo>
    <tripinfo id="vehicle_66" depart="8.80" departLane="road3_0" departPos="4.10" departPosLat="0.00" departSpeed="3.32" departDelay="0.40" arrival="39.20" arrivalLane="-road1_0" arrivalPos="19.96" arrivalPosLat="0.00" arrivalSpeed="11.83" duration="30.40" routeLength="206.37" waitingTime="0.00" waitingCount="0" stopTime="0.00" timeLoss="12.40" rerouteNo="1" devices="tripinfo_vehicle_66 routing_vehicle_66 emissions_vehicle_66 battery_vehicle_66" vType="human" speedFactor="0.91" vaporized="">
        <emissions CO_abs="0" CO2_abs="0" HC_abs="0" PMx_abs="0" NOx_abs="0" fuel_abs="0" electricity_abs="67.821128"/>
    </tripinfo>
    <tripinfo id="vehicle_18" depart="17.60" departLane="road3_0" departPos="4.10" departPosLat="0.00" departSpeed="3.25" departDelay="3.60" arrival="40.00" arrivalLane="-road2_0" arrivalPos="19.96" arrivalPosLat="0.00" arrivalSpeed="12.09" duration="22.40" routeLength="122.77" waitingTime="0.00" waitingCount="0" stopTime="0.00" timeLoss="11.16" rerouteNo="1" devices="tripinfo_vehicle_18 routing_vehicle_18 emissions_vehicle_18 battery_vehicle_18" vType="human" speedFactor="0.94" vaporized="">
        <emissions CO_abs="0" CO2_abs="0" HC_abs="0" PMx_abs="0" NOx_abs="0" fuel_abs="0" electricity_abs="52.527172"/>
    </tripinfo>
    <tripinfo id="vehicle_15" depart="6.80" departLane="road2_0" departPos="4.10" departPosLat="0.00" departSpeed="2.59" departDelay="2.00" arrival="41.20" arrivalLane="-road0_0" arrivalPos="19.96" arrivalPosLat="0.00" arrivalSpeed="12.96" duration="34.40" routeLength="206.37" waitingTime="3.20" waitingCount="1" stopTime="0.00" timeLoss="16.48" rerouteNo="1" devices="tripinfo_vehicle_15 routing_vehicle_15 emissions_vehicle_15 battery_vehicle_15" vType="human" speedFactor="0.93" vaporized="">
        <emissions CO_abs="0" CO2_abs="0" HC_abs="0" PMx_abs="0" NOx_abs="0" fuel_abs="0" electricity_abs="79.347206"/>
    </tripinfo>
    <tripinfo id="vehicle_31" depart="21.60" departLane="road3_0" departPos="4.10" departPosLat="0.00" departSpeed="2.98" departDelay="4.00" arrival="42.80" arrivalLane="-road2_0" arrivalPos="19.96" arrivalPosLat="0.00" arrivalSpeed="11.71" duration="21.20" routeLength="122.77" waitingTime="0.00" waitingCount="0" stopTime="0.00" timeLoss="11.03" rerouteNo="1" devices="tripinfo_vehicle_31 routing_vehicle_31 emissions_vehicle_31 battery_vehicle_31" vType="human" speedFactor="1.15" vaporized="">
        <emissions CO_abs="0" CO2_abs="0" HC_abs="0" PMx_abs="0" NOx_abs="0" fuel_abs="0" electricity_abs="51.564745"/>
    </tripinfo>
    <tripinfo id="vehicle_61" depart="18.40" departLane="road1_0" departPos="4.10" departPosLat="0.00" departSpeed="0.86" departDelay="12.40" arrival="43.60" arrivalLane="-road0_0" arrivalPos="19.96" arrivalPosLat="0.00" arrivalSpeed="12.57" duration="25.20" routeLength="122.77" waitingTime="5.60" waitingCount="2" stopTime="0.00" timeLoss="15.10" rerouteNo="1" devices="tripinfo_vehicle_61 routing_vehicle_61 emissions_vehicle_61 battery_vehicle_61" vType="human" speedFactor="1.12" vaporized="">
        <emissions CO_abs="0" CO2_abs="0" HC_abs="0" PMx_abs="0" NOx_abs="0" fuel_abs="0" electricity_abs="64.920224"/>
    </tripinfo>
    <tripinfo id="vehicle_52" depart="4.80" departLane="road2_0" departPos="4.10" departPosLat="0.00" departSpeed="2.97" departDelay="2.80" arrival="44.40" arrivalLane="-road3_0" arrivalPos="19.96" arrivalPosLat="0.00" arrivalSpeed="11.22" duration="39.60" routeLength="289.97" waitingTime="4.80" waitingCount="1" stopTime="0.00" timeLoss="17.07" rerouteNo="1" devices="tripinfo_vehicle_52 routing_vehicle_52 emissions_vehicle_52 battery_vehicle_52" vType="human" speedFactor="1.02" vaporized="">
        <emissions CO_abs="0" CO2_abs="0" HC_abs="0" PMx_abs="0" NOx_abs="0" fuel_abs="0" electricity_abs="89.209211"/>
    </tripinfo>
    <tripinfo id="vehicle_64" depart="10.80" departLane="road3_0" departPos="4.10" departPosLat="0.00" departSpeed="1.09" departDelay="0.40" arrival="44.40" arrivalLane="-road1_0" arrivalPos="19.96" arrivalPosLat="0.00" arrivalSpeed="12.52" duration="33.60" routeLength="206.37" waitingTime="0.40" waitingCount="1" stopTime="0.00" timeLoss="16.34" rerouteNo="1" devices="tripinfo_vehicle_64 routing_vehicle_64 emissions_vehicle_64 battery_vehicle_64" vType="human" speedFactor="0.94" vaporized="">
        <emissions CO_abs="0" CO2_abs="0" HC_abs="0" PMx_abs="0" NOx_abs="0" fuel_abs="0" electricity_abs="73.917478"/>
    </tripinfo>
    <tripinfo id="vehicle_12" depart="21.60" departLane="road1_0" departPos="4.10" departPosLat="0.00" departSpeed="1.40" departDelay="12.40" arrival="46.40" arrivalLane="-road0_0" arrivalPos="19.96" arrivalPosLat="0.00" arrivalSpeed="12.21" duration="24.80" routeLength="122.77" waitingTime="4.80" waitingCount="1" stopTime="0.00" timeLoss="14.51" rerouteNo="1" devices="tripinfo_vehicle_12 routing_vehicle_12 emissions_vehicle_12 battery_vehicle_12" vType="human" speedFactor="1.05" vaporized="">
        <emissions CO_abs="0" CO2_abs="0" HC_abs="0" PMx_abs="0" NOx_abs="0" fuel_abs="0" electricity_abs="59.884786"/>
    </tripinfo>
    <tripinfo id="vehicle_74" depart="28.80" departLane="road3_0" departPos="4.10" departPosLat="0.00" departSpeed="6.11" departDelay="0.00" arrival="47.60" arrivalLane="-road2_0" arrivalPos="19.96" arrivalPosLat="0.00" arrivalSpeed="12.02" duration="18.80" routeLength="122.77" waitingTime="0.00" waitingCount="0" stopTime="0.00" timeLoss="7.82" rerouteNo="1" devices="tripinfo_vehicle_74 routing_vehicle_74 emissions_vehicle_74 battery_vehicle_74" vType="human" speedFactor="0.96" vaporized="">
        <emissions CO_abs="0" CO2_abs="0" HC_abs="0" PMx_abs="0" NOx_abs="0" fuel_abs="0" electricity_abs="45.247608"/>
    </tripinfo>
    <tripinfo id="vehicle_76" depart="20.40" departLane="road2_0" departPos="4.10" departPosLat="0.00" departSpeed="2.07" departDelay="14.00" arrival="48.00" arrivalLane="-road1_0" arrivalPos="19.96" arrivalPosLat="0.00" arrivalSpeed="12.18" duration="27.60" routeLength="122.77" waitingTime="8.00" waitingCount="2" stopTime="0.00" timeLoss="16.97" rerouteNo="1" devices="tripinfo_vehicle_76 routing_vehicle_76 emissions_vehicle_76 battery_vehicle_76" vType="human" speedFactor="1.03" vaporized="">
        <emissions CO_abs="0" CO2_abs="0" HC_abs="0" PMx_abs="0" NOx_abs="0" fuel_abs="0" electricity_abs="60.974587"/>
    </tripinfo>
    <tripinfo id="vehicle_47" depart="7.20" departLane="road1_0" departPos="4.10" departPosLat="0.00" departSpeed="2.98" departDelay="2.40" arrival="50.00" arrivalLane="-road2_0" arrivalPos="19.96" arrivalPosLat="0.00" arrivalSpeed="11.21" duration="42.80" routeLength="289.97" waitingTime="3.20" waitingCount="1" stopTime="0.00" timeLoss="18.12" rerouteNo="1" devices="tripinfo_vehicle_47 routing_vehicle_47 emissions_vehicle_47 battery_vehicle_47" vType="human" speedFactor="0.90" vaporized="">
        <emissions CO_abs="0" CO2_abs="0" HC_abs="0" PMx_abs="0" NOx_abs="0" fuel_abs="0" electricity_abs="81.296099"/>
    </tripinfo>
    <tripinfo id="vehicle_49" depart="9.20" departLane="road2_0" departPos="4.10" departPosLat="0.00" departSpeed="1.34" departDelay="4.40" arrival="50.00" arrivalLane="-road3_0" arrivalPos="19.96" arrivalPosLat="0.00" arrivalSpeed="10.69" duration="40.80" routeLength="289.97" waitingTime="2.80" waitingCount="1" stopTime="0.00" timeLoss="14.48" rerouteNo="1" devices="tripinfo_vehicle_49 routing_vehicle_49 emissions_vehicle_49 battery_vehicle_49" vType="human" speedFactor="0.85" vaporized="">
        <emissions CO_abs="0" CO2_abs="0" HC_abs="0" PMx_abs="0" NOx_abs="0" fuel_abs="0" electricity_abs="80.697053"/>
    </tripinfo>
    <tripinfo id="vehicle_75" depart="19.60" departLane="road3_0" departPos="4.10" departPosLat="0.00" departSpeed="2.67" departDelay="2.80" arrival="50.00" arrivalLane="-road1_0" arrivalPos="19.96" arrivalPosLat="0.00" arrivalSpeed="12.66" duration="30.40" routeLength="206.37" waitingTime="0.00" waitingCount="0" stopTime="0.00" timeLoss="13.56" rerouteNo="1" devices="tripinfo_vehicle_75 routing_vehicle_75 emissions_vehicle_75 battery_vehicle_75" vType="human" speedFactor="0.98" vaporized="">
        <emissions CO_abs="0" CO2_abs="0" HC_abs="0" PMx_abs="0" NOx_abs="0" fuel_abs="0" electricity_abs="74.472769"/>
    </tripinfo>
    <tripinfo id="vehicle_6" depart="7.20" departLane="road0_0" departPos="4.10" departPosLat="0.00" departSpeed="3.34" departDelay="0.00" arrival="52.40" arrivalLane="-road3_0" arrivalPos="19.96" arrivalPosLat="0.00" arrivalSpeed="12.01" duration="45.20" routeLength="122.77" waitingTime="24.00" waitingCount="1" stopTime="0.00" timeLoss="34.66" rerouteNo="0" devices="tripinfo_vehicle_6 emissions_vehicle_6 battery_vehicle_6" vType="human" speedFactor="1.05" vaporized="">
        <emissions CO_abs="0" CO2_abs="0" HC_abs="0" PMx_abs="0" NOx_abs="0" fuel_abs="0" electricity_abs="55.195189"/>
    </tripinfo>
    <tripinfo id="vehicle_19" depart="9.20" departLane="road1_0" departPos="4.10" departPosLat="0.00" departSpeed="1.14" departDelay="3.60" arrival="52.40" arrivalLane="-road2_0" arrivalPos="19.96" arrivalPosLat="0.00" arrivalSpeed="12.68" duration="43.20" routeLength="289.97" waitingTime="2.40" waitingCount="1" stopTime="0.00" timeLoss="20.80" rerouteNo="1" devices="tripinfo_vehicle_19 routing_vehicle_19 emissions_vehicle_19 battery_vehicle_19" vType="human" speedFactor="1.16" vaporized="">
        <emissions CO_abs="0" CO2_abs="0" HC_abs="0" PMx_abs="0" NOx_abs="0" fuel_abs="0" electricity_abs="93.768090"/>
    </tripinfo>
    <tripinfo id="vehicle_30" depart="15.20" departLane="road3_0" departPos="4.10" departPosLat="0.00" departSpeed="1.67" departDelay="1.60" arrival="52.80" arrivalLane="-road0_0" arrivalPos="19.96" arrivalPosLat="0.00" arrivalSpeed="11.62" duration="37.60" routeLength="289.97" waitingTime="0.00" waitingCount="0" stopTime="0.00" timeLoss="15.55" rerouteNo="1" devices="tripinfo_vehicle_30 routing_vehicle_30 emissions_vehicle_30 battery_vehicle_30" vType="human" speedFactor="1.18" vaporized="">
        <emissions CO_abs="0" CO2_abs="0" HC_abs="0" PMx_abs="0" NOx_abs="0" fuel_abs="0" electricity_abs="91.337391"/>
    </tripinfo>
    <tripinfo id="vehicle_2" depart="23.60" departLane="road3_0" departPos="4.10" departPosLat="0.00" departSpeed="0.75" departDelay="4.80" arrival="54.40" arrivalLane="-road1_0" arrivalPos="19.96" arrivalPosLat="0.00" arrivalSpeed="11.99" duration="30.80" routeLength="206.37" waitingTime="0.00" waitingCount="0" stopTime="0.00" timeLoss="14.42" rerouteNo="1" devices="tripinfo_vehicle_2 routing_vehicle_2 emissions_vehicle_2 battery_vehicle_2" vType="human" speedFactor="1.01" vaporized="">
        <emissions CO_abs="0" CO2_abs="0" HC_abs="0" PMx_abs="0" NOx_abs="0" fuel_abs="0" electricity_abs="69.686732"/>
    </tripinfo>
    <tripinfo id="vehicle_14" depart="35.60" departLane="road1_0" departPos="4.10" departPosLat="0.00" departSpeed="2.14" departDelay="18.80" arrival="55.20" arrivalLane="-road0_0" arrivalPos="19.96" arrivalPosLat="0.00" arrivalSpeed="10.55" duration="19.60" routeLength="122.77" waitingTime="0.00" waitingCount="0" stopTime="0.00" timeLoss="9.12" rerouteNo="1" devices="tripinfo_vehicle_14 routing_vehicle_14 emissions_vehicle_14 battery_vehicle_14" vType="human" speedFactor="0.99" vaporized="">
        <emissions CO_abs="0" CO2_abs="0" HC_abs="0" PMx_abs="0" NOx_abs="0" fuel_abs="0" electricity_abs="46.249362"/>
    </tripinfo>
    <tripinfo id="vehicle_45" depart="4.80" departLane="road0_0" departPos="4.10" departPosLat="0.00" departSpeed="2.94" departDelay="0.00" arrival="55.20" arrivalLane="-road2_0" arrivalPos="19.96" arrivalPosLat="0.00" arrivalSpeed="13.12" duration="50.40" routeLength="206.37" waitingTime="25.20" waitingCount="1" stopTime="0.00" timeLoss="33.88" rerouteNo="0" devices="tripinfo_vehicle_45 emissions_vehicle_45 battery_vehicle_45" vType="human" speedFactor="1.09" vaporized="">
        <emissions CO_abs="0" CO2_abs="0" HC_abs="0" PMx_abs="0" NOx_abs="0" fuel_abs="0" electricity_abs="85.803885"/>
    </tripinfo>
    <tripinfo id="vehicle_59" depart="24.80" departLane="road2_0" departPos="4.10" departPosLat="0.00" departSpeed="1.20" departDelay="17.20" arrival="58.00" arrivalLane="-road1_0" arrivalPos="19.96" arrivalPosLat="0.00" arrivalSpeed="11.59" duration="33.20" routeLength="122.77" waitingTime="10.80" waitingCount="3" stopTime="0.00" timeLoss="22.78" rerouteNo="1" devices="tripinfo_vehicle_59 routing_vehicle_59 emissions_vehicle_59 battery_vehicle_59" vType="human" speedFactor="0.97" vaporized="">
        <emissions CO_abs="0" CO2_abs="0" HC_abs="0" PMx_abs="0" NOx_abs="0" fuel_abs="0" electricity_abs="58.058864"/>
    </tripinfo>
    <tripinfo id="vehicle_20" depart="40.00" departLane="road1_0" departPos="4.10" departPosLat="0.00" departSpeed="2.67" departDelay="16.40" arrival="59.60" arrivalLane="-road0_0" arrivalPos="19.96" arrivalPosLat="0.00" arrivalSpeed="12.02" duration="19.60" routeLength="122.77" waitingTime="0.00" waitingCount="0" stopTime="0.00" timeLoss="9.24" rerouteNo="1" devices="tripinfo_vehicle_20 routing_vehicle_20 emissions_vehicle_20 battery_vehicle_20" vType="human" speedFactor="1.02" vaporized="">
        <emissions CO_abs="0" CO2_abs="0" HC_abs="0" PMx_abs="0" NOx_abs="0" fuel_abs="0" electricity_abs="54.267885"/>
    </tripinfo>
    <tripinfo id="vehicle_67" depart="24.00" departLane="road1_0" departPos="4.10" departPosLat="0.00" departSpeed="1.57" departDelay="14.40" arrival="62.40" arrivalLane="-road2_0" arrivalPos="19.96" arrivalPosLat="0.00" arrivalSpeed="11.48" duration="38.40" routeLength="289.97" waitingTime="3.60" waitingCount="1" stopTime="0.00" timeLoss="14.15" rerouteNo="1" devices="tripinfo_vehicle_67 routing_vehicle_67 emissions_vehicle_67 battery_vehicle_67" vType="human" speedFactor="0.91" vaporized="">
        <emissions CO_abs="0" CO2_abs="0" HC_abs="0" PMx_abs="0" NOx_abs="0" fuel_abs="0" electricity_abs="92.247065"/>
    </tripinfo>
    <tripinfo id="vehicle_29" depart="39.60" departLane="road2_0" departPos="4.10" departPosLat="0.00" departSpeed="1.94" departDelay="28.40" arrival="63.20" arrivalLane="-road1_0" arrivalPos="19.96" arrivalPosLat="0.00" arrivalSpeed="12.17" duration="23.60" routeLength="122.77" waitingTime="2.80" waitingCount="1" stopTime="0.00" timeLoss="12.60" rerouteNo="1" devices="tripinfo_vehicle_29 routing_vehicle_29 emissions_vehicle_29 battery_vehicle_29" vType="human" speedFactor="0.93" vaporized="">
        <emissions CO_abs="0" CO2_abs="0" HC_abs="0" PMx_abs="0" NOx_abs="0" fuel_abs="0" electricity_abs="59.312995"/>
    </tripinfo>
    <tripinfo id="vehicle_57" depart="22.80" departLane="road2_0" departPos="4.10" departPosLat="0.00" departSpeed="2.89" departDelay="16.00" arrival="63.60" arrivalLane="-road0_0" arrivalPos="19.96" arrivalPosLat="0.00" arrivalSpeed="12.47" duration="40.80" routeLength="206.37" waitingTime="6.80" waitingCount="1" stopTime="0.00" timeLoss="24.70" rerouteNo="1" devices="tripinfo_vehicle_57 routing_vehicle_57 emissions_vehicle_57 battery_vehicle_57" vType="human" speedFactor="1.14" vaporized="">
        <emissions CO_abs="0" CO2_abs="0" HC_abs="0" PMx_abs="0" NOx_abs="0" fuel_abs="0" electricity_abs="71.711093"/>
    </tripinfo>
    <tripinfo id="vehicle_22" depart="33.20" departLane="road1_0" departPos="4.10" departPosLat="0.00" departSpeed="1.37" departDelay="22.00" arrival="65.20" arrivalLane="-road2_0" arrivalPos="19.96" arrivalPosLat="0.00" arrivalSpeed="12.85" duration="32.00" routeLength="289.97" waitingTime="0.00" waitingCount="0" stopTime="0.00" timeLoss="9.17" rerouteNo="1" devices="tripinfo_vehicle_22 routing_vehicle_22 emissions_vehicle_22 battery_vehicle_22" vType="human" speedFactor="0.97" vaporized="">
        <emissions CO_abs="0" CO2_abs="0" HC_abs="0" PMx_abs="0" NOx_abs="0" fuel_abs="0" electricity_abs="101.521006"/>
    </tripinfo>
    <tripinfo id="vehicle_56" depart="38.00" departLane="road1_0" departPos="4.10" departPosLat="0.00" departSpeed="3.13" departDelay="17.20" arrival="65.60" arrivalLane="-road3_0" arrivalPos="19.96" arrivalPosLat="0.00" arrivalSpeed="11.04" duration="27.60" routeLength="206.37" waitingTime="0.00" waitingCount="0" stopTime="0.00" timeLoss="9.38" rerouteNo="1" devices="tripinfo_vehicle_56 routing_vehicle_56 emissions_vehicle_56 battery_vehicle_56" vType="human" speedFactor="0.90" vaporized="">
        <emissions CO_abs="0" CO2_abs="0" HC_abs="0" PMx_abs="0" NOx_abs="0" fuel_abs="0" electricity_abs="63.337992"/>
    </tripinfo>
    <tripinfo id="vehicle_13" depart="8.80" departLane="road0_0" departPos="4.10" departPosLat="0.00" departSpeed="1.55" departDelay="1.20" arrival="66.80" arrivalLane="-road1_0" arrivalPos="19.96" arrivalPosLat="0.00" arrivalSpeed="12.01" duration="58.00" routeLength="289.97" waitingTime="23.20" waitingCount="1" stopTime="0.00" timeLoss="35.68" rerouteNo="0" devices="tripinfo_vehicle_13 emissions_vehicle_13 battery_vehicle_13" vType="human" speedFactor="1.12" vaporized="">
        <emissions CO_abs="0" CO2_abs="0" HC_abs="0" PMx_abs="0" NOx_abs="0" fuel_abs="0" electricity_abs="96.749216"/>
    </tripinfo>
    <tripinfo id="vehicle_0" depart="30.00" departLane="road3_0" departPos="4.10" departPosLat="0.00" departSpeed="3.23" departDelay="0.40" arrival="67.20" arrivalLane="-road2_0" arrivalPos="19.96" arrivalPosLat="0.00" arrivalSpeed="11.88" duration="37.20" routeLength="122.77" waitingTime="18.40" waitingCount="1" stopTime="0.00" timeLoss="27.06" rerouteNo="1" devices="tripinfo_vehicle_0 routing_vehicle_0 emissions_vehicle_0 battery_vehicle_0" vType="human" speedFactor="1.06" vaporized="">
        <emissions CO_abs="0" CO2_abs="0" HC_abs="0" PMx_abs="0" NOx_abs="0" fuel_abs="0" electricity_abs="59.096333"/>
    </tripinfo>
    <tripinfo id="vehicle_55" depart="25.60" departLane="road3_0" departPos="4.10" departPosLat="0.00" departSpeed="0.35" departDelay="4.80" arrival="67.20" arrivalLane="-road0_0" arrivalPos="19.96" arrivalPosLat="0.00" arrivalSpeed="13.51" duration="41.60" routeLength="289.97" waitingTime="6.80" waitingCount="1" stopTime="0.00" timeLoss="18.99" rerouteNo="1" devices="tripinfo_vehicle_55 routing_vehicle_55 emissions_vehicle_55 battery_vehicle_55" vType="human" speedFactor="1.00" vaporized="">
        <emissions CO_abs="0" CO2_abs="0" HC_abs="0" PMx_abs="0" NOx_abs="0" fuel_abs="0" electricity_abs="109.846510"/>
    </tripinfo>
    <tripinfo id="vehicle_58" depart="50.40" departLane="road2_0" departPos="4.10" departPosLat="0.00" departSpeed="2.82" departDelay="36.80" arrival="69.20" arrivalLane="-road1_0" arrivalPos="19.96" arrivalPosLat="0.00" arrivalSpeed="11.71" duration="18.80" routeLength="122.77" waitingTime="0.00" waitingCount="0" stopTime="0.00" timeLoss="8.20" rerouteNo="1" devices="tripinfo_vehicle_58 routing_vehicle_58 emissions_vehicle_58 battery_vehicle_58" vType="human" speedFactor="1.02" vaporized="">
        <emissions CO_abs="0" CO2_abs="0" HC_abs="0" PMx_abs="0" NOx_abs="0" fuel_abs="0" electricity_abs="53.072671"/>
    </tripinfo>