<?xml version="1.0" encoding="UTF-8"?>

<!-- generated on 2025-08-10 10:49:17 by Eclipse SUMO sumo Version v1_20_0+0085-e155ab8699b
<configuration xmlns:xsi="http://www.w3.org/2001/XMLSchema-instance" xsi:noNamespaceSchemaLocation="http://sumo.dlr.de/xsd/sumoConfiguration.xsd">

    <input>
        <net-file value="../networks/roundabout.net.xml"/>
        <route-files value="../networks/routes_EIDM.rou.xml"/>
    </input>

    <output>
        <output-prefix value="49-"/>
        <battery-output.precision value="4"/>
        <tripinfo-output value="../networks/output_data/output_eidm/tripinfo/tripinfo-output.xml"/>
        <collision-output value="../networks/output_data/output_eidm/collision/collision-output.xml"/>
    </output>

    <time>
        <begin value="0"/>
        <step-length value="0.4"/>
    </time>

    <processing>
        <step-method.ballistic value="true"/>
        <lateral-resolution value="3.2"/>
        <collision.action value="warn"/>
        <collision.check-junctions value="True"/>
        <collision.mingap-factor value="0"/>
        <time-to-teleport value="-1"/>
        <random-depart-offset value="5"/>
    </processing>

    <report>
        <no-warnings value="True"/>
        <no-step-log value="True"/>
    </report>

    <emissions>
        <device.emissions.probability value="1"/>
    </emissions>

    <battery>
        <device.battery.probability value="1"/>
    </battery>

    <traci_server>
        <remote-port value="55083"/>
    </traci_server>

    <gui_only>
        <quit-on-end value="True"/>
        <start value="True"/>
        <delay value="0"/>
    </gui_only>

</configuration>
-->

<tripinfos xmlns:xsi="http://www.w3.org/2001/XMLSchema-instance" xsi:noNamespaceSchemaLocation="http://sumo.dlr.de/xsd/tripinfo_file.xsd">
    <tripinfo id="vehicle_20" depart="0.80" departLane="road1_0" departPos="4.10" departPosLat="0.00" departSpeed="8.17" departDelay="0.00" arrival="14.80" arrivalLane="-road0_0" arrivalPos="19.96" arrivalPosLat="0.00" arrivalSpeed="12.99" duration="14.00" routeLength="122.77" waitingTime="0.00" waitingCount="0" stopTime="0.00" timeLoss="3.70" rerouteNo="1" devices="tripinfo_vehicle_20 routing_vehicle_20 emissions_vehicle_20 battery_vehicle_20" vType="human" speedFactor="1.02" vaporized="">
        <emissions CO_abs="0" CO2_abs="0" HC_abs="0" PMx_abs="0" NOx_abs="0" fuel_abs="0" electricity_abs="52.830671"/>
    </tripinfo>
    <tripinfo id="vehicle_56" depart="3.20" departLane="road2_0" departPos="4.10" departPosLat="0.00" departSpeed="2.40" departDelay="0.80" arrival="20.00" arrivalLane="-road1_0" arrivalPos="19.96" arrivalPosLat="0.00" arrivalSpeed="12.28" duration="16.80" routeLength="122.77" waitingTime="0.00" waitingCount="0" stopTime="0.00" timeLoss="5.19" rerouteNo="1" devices="tripinfo_vehicle_56 routing_vehicle_56 emissions_vehicle_56 battery_vehicle_56" vType="human" speedFactor="0.90" vaporized="">
        <emissions CO_abs="0" CO2_abs="0" HC_abs="0" PMx_abs="0" NOx_abs="0" fuel_abs="0" electricity_abs="60.268803"/>
    </tripinfo>
    <tripinfo id="rl_0" depart="5.60" departLane="road3_0" departPos="4.10" departPosLat="0.00" departSpeed="2.37" departDelay="0.40" arrival="21.60" arrivalLane="-road2_0" arrivalPos="19.96" arrivalPosLat="0.00" arrivalSpeed="9.74" duration="16.00" routeLength="122.77" waitingTime="0.00" waitingCount="0" stopTime="0.00" timeLoss="5.76" rerouteNo="1" devices="tripinfo_rl_0 routing_rl_0 emissions_rl_0 battery_rl_0 driverstaterl_0" vType="rlAnget" speedFactor="1.03" vaporized="">
        <emissions CO_abs="0" CO2_abs="0" HC_abs="0" PMx_abs="0" NOx_abs="0" fuel_abs="0" electricity_abs="50.755579"/>
    </tripinfo>
    <tripinfo id="vehicle_67" depart="1.60" departLane="road0_0" departPos="4.10" departPosLat="0.00" departSpeed="1.09" departDelay="0.00" arrival="24.80" arrivalLane="-road2_0" arrivalPos="19.96" arrivalPosLat="0.00" arrivalSpeed="11.73" duration="23.20" routeLength="206.37" waitingTime="0.00" waitingCount="0" stopTime="0.00" timeLoss="5.49" rerouteNo="0" devices="tripinfo_vehicle_67 emissions_vehicle_67 battery_vehicle_67" vType="human" speedFactor="0.91" vaporized="">
        <emissions CO_abs="0" CO2_abs="0" HC_abs="0" PMx_abs="0" NOx_abs="0" fuel_abs="0" electricity_abs="76.936647"/>
    </tripinfo>
    <tripinfo id="vehicle_48" depart="7.20" departLane="road0_0" departPos="4.10" departPosLat="0.00" departSpeed="3.05" departDelay="0.40" arrival="25.20" arrivalLane="-road3_0" arrivalPos="19.96" arrivalPosLat="0.00" arrivalSpeed="11.49" duration="18.00" routeLength="122.77" waitingTime="0.00" waitingCount="0" stopTime="0.00" timeLoss="6.03" rerouteNo="0" devices="tripinfo_vehicle_48 emissions_vehicle_48 battery_vehicle_48" vType="human" speedFactor="0.88" vaporized="">
        <emissions CO_abs="0" CO2_abs="0" HC_abs="0" PMx_abs="0" NOx_abs="0" fuel_abs="0" electricity_abs="53.051054"/>
    </tripinfo>
    <tripinfo id="vehicle_9" depart="3.20" departLane="road0_0" departPos="4.10" departPosLat="0.00" departSpeed="4.22" departDelay="0.40" arrival="28.00" arrivalLane="-road2_0" arrivalPos="19.96" arrivalPosLat="0.00" arrivalSpeed="11.59" duration="24.80" routeLength="206.37" waitingTime="0.00" waitingCount="0" stopTime="0.00" timeLoss="5.82" rerouteNo="0" devices="tripinfo_vehicle_9 emissions_vehicle_9 battery_vehicle_9" vType="human" speedFactor="0.86" vaporized="">
        <emissions CO_abs="0" CO2_abs="0" HC_abs="0" PMx_abs="0" NOx_abs="0" fuel_abs="0" electricity_abs="67.522643"/>
    </tripinfo>
    <tripinfo id="vehicle_70" depart="4.80" departLane="road1_0" departPos="4.10" departPosLat="0.00" departSpeed="3.20" departDelay="0.80" arrival="28.00" arrivalLane="-road3_0" arrivalPos="19.96" arrivalPosLat="0.00" arrivalSpeed="13.75" duration="23.20" routeLength="206.37" waitingTime="0.00" waitingCount="0" stopTime="0.00" timeLoss="6.61" rerouteNo="1" devices="tripinfo_vehicle_70 routing_vehicle_70 emissions_vehicle_70 battery_vehicle_70" vType="human" speedFactor="1.02" vaporized="">
        <emissions CO_abs="0" CO2_abs="0" HC_abs="0" PMx_abs="0" NOx_abs="0" fuel_abs="0" electricity_abs="90.046476"/>
    </tripinfo>
    <tripinfo id="vehicle_18" depart="4.80" departLane="road2_0" departPos="4.10" departPosLat="0.00" departSpeed="2.21" departDelay="0.40" arrival="29.20" arrivalLane="-road1_0" arrivalPos="19.96" arrivalPosLat="0.00" arrivalSpeed="11.66" duration="24.40" routeLength="122.77" waitingTime="4.80" waitingCount="1" stopTime="0.00" timeLoss="13.27" rerouteNo="1" devices="tripinfo_vehicle_18 routing_vehicle_18 emissions_vehicle_18 battery_vehicle_18" vType="human" speedFactor="0.94" vaporized="">
        <emissions CO_abs="0" CO2_abs="0" HC_abs="0" PMx_abs="0" NOx_abs="0" fuel_abs="0" electricity_abs="58.615656"/>
    </tripinfo>
    <tripinfo id="vehicle_19" depart="0.80" departLane="road3_0" departPos="4.10" departPosLat="0.00" departSpeed="0.10" departDelay="0.00" arrival="29.60" arrivalLane="-road0_0" arrivalPos="19.96" arrivalPosLat="0.00" arrivalSpeed="11.80" duration="28.80" routeLength="289.97" waitingTime="0.00" waitingCount="0" stopTime="0.00" timeLoss="6.77" rerouteNo="1" devices="tripinfo_vehicle_19 routing_vehicle_19 emissions_vehicle_19 battery_vehicle_19" vType="human" speedFactor="1.16" vaporized="">
        <emissions CO_abs="0" CO2_abs="0" HC_abs="0" PMx_abs="0" NOx_abs="0" fuel_abs="0" electricity_abs="101.252111"/>
    </tripinfo>
    <tripinfo id="vehicle_47" depart="0.00" departLane="road2_0" departPos="4.10" departPosLat="0.00" departSpeed="5.75" departDelay="0.00" arrival="30.40" arrivalLane="-road3_0" arrivalPos="19.96" arrivalPosLat="0.00" arrivalSpeed="11.94" duration="30.40" routeLength="289.97" waitingTime="0.00" waitingCount="0" stopTime="0.00" timeLoss="5.47" rerouteNo="1" devices="tripinfo_vehicle_47 routing_vehicle_47 emissions_vehicle_47 battery_vehicle_47" vType="human" speedFactor="0.90" vaporized="">
        <emissions CO_abs="0" CO2_abs="0" HC_abs="0" PMx_abs="0" NOx_abs="0" fuel_abs="0" electricity_abs="85.531346"/>
    </tripinfo>
    <tripinfo id="vehicle_5" depart="8.00" departLane="road3_0" departPos="4.10" departPosLat="0.00" departSpeed="4.93" departDelay="2.40" arrival="32.00" arrivalLane="-road2_0" arrivalPos="19.96" arrivalPosLat="0.00" arrivalSpeed="10.26" duration="24.00" routeLength="122.77" waitingTime="4.00" waitingCount="2" stopTime="0.00" timeLoss="11.52" rerouteNo="1" devices="tripinfo_vehicle_5 routing_vehicle_5 emissions_vehicle_5 battery_vehicle_5" vType="human" speedFactor="0.83" vaporized="">
        <emissions CO_abs="0" CO2_abs="0" HC_abs="0" PMx_abs="0" NOx_abs="0" fuel_abs="0" electricity_abs="40.991013"/>
    </tripinfo>
    <tripinfo id="vehicle_32" depart="4.00" departLane="road3_0" departPos="4.10" departPosLat="0.00" departSpeed="1.52" departDelay="0.00" arrival="32.40" arrivalLane="-road0_0" arrivalPos="19.96" arrivalPosLat="0.00" arrivalSpeed="11.53" duration="28.40" routeLength="289.97" waitingTime="0.00" waitingCount="0" stopTime="0.00" timeLoss="6.30" rerouteNo="1" devices="tripinfo_vehicle_32 routing_vehicle_32 emissions_vehicle_32 battery_vehicle_32" vType="human" speedFactor="1.01" vaporized="">
        <emissions CO_abs="0" CO2_abs="0" HC_abs="0" PMx_abs="0" NOx_abs="0" fuel_abs="0" electricity_abs="100.021908"/>
    </tripinfo>
    <tripinfo id="vehicle_51" depart="2.00" departLane="road2_0" departPos="4.10" departPosLat="0.00" departSpeed="5.98" departDelay="0.00" arrival="32.40" arrivalLane="-road3_0" arrivalPos="19.96" arrivalPosLat="0.00" arrivalSpeed="12.60" duration="30.40" routeLength="289.97" waitingTime="0.00" waitingCount="0" stopTime="0.00" timeLoss="8.38" rerouteNo="1" devices="tripinfo_vehicle_51 routing_vehicle_51 emissions_vehicle_51 battery_vehicle_51" vType="human" speedFactor="1.17" vaporized="">
        <emissions CO_abs="0" CO2_abs="0" HC_abs="0" PMx_abs="0" NOx_abs="0" fuel_abs="0" electricity_abs="93.741918"/>
    </tripinfo>
    <tripinfo id="vehicle_27" depart="9.60" departLane="road2_0" departPos="4.10" departPosLat="0.00" departSpeed="1.37" departDelay="0.80" arrival="33.20" arrivalLane="-road1_0" arrivalPos="19.96" arrivalPosLat="0.00" arrivalSpeed="11.51" duration="23.60" routeLength="122.77" waitingTime="3.20" waitingCount="1" stopTime="0.00" timeLoss="12.99" rerouteNo="1" devices="tripinfo_vehicle_27 routing_vehicle_27 emissions_vehicle_27 battery_vehicle_27" vType="human" speedFactor="0.95" vaporized="">
        <emissions CO_abs="0" CO2_abs="0" HC_abs="0" PMx_abs="0" NOx_abs="0" fuel_abs="0" electricity_abs="57.814450"/>
    </tripinfo>
    <tripinfo id="vehicle_66" depart="3.60" departLane="road1_0" departPos="4.10" departPosLat="0.00" departSpeed="5.01" departDelay="0.00" arrival="36.40" arrivalLane="-road2_0" arrivalPos="19.96" arrivalPosLat="0.00" arrivalSpeed="11.71" duration="32.80" routeLength="289.97" waitingTime="0.00" waitingCount="0" stopTime="0.00" timeLoss="8.02" rerouteNo="1" devices="tripinfo_vehicle_66 routing_vehicle_66 emissions_vehicle_66 battery_vehicle_66" vType="human" speedFactor="0.91" vaporized="">
        <emissions CO_abs="0" CO2_abs="0" HC_abs="0" PMx_abs="0" NOx_abs="0" fuel_abs="0" electricity_abs="84.449883"/>
    </tripinfo>
    <tripinfo id="vehicle_25" depart="5.20" departLane="road0_0" departPos="4.10" departPosLat="0.00" departSpeed="2.97" departDelay="0.00" arrival="38.80" arrivalLane="-road1_0" arrivalPos="19.96" arrivalPosLat="0.00" arrivalSpeed="11.36" duration="33.60" routeLength="289.97" waitingTime="0.00" waitingCount="0" stopTime="0.00" timeLoss="7.96" rerouteNo="0" devices="tripinfo_vehicle_25 emissions_vehicle_25 battery_vehicle_25" vType="human" speedFactor="0.87" vaporized="">
        <emissions CO_abs="0" CO2_abs="0" HC_abs="0" PMx_abs="0" NOx_abs="0" fuel_abs="0" electricity_abs="83.339378"/>
    </tripinfo>
    <tripinfo id="vehicle_64" depart="11.60" departLane="road3_0" departPos="4.10" departPosLat="0.00" departSpeed="0.77" departDelay="4.80" arrival="38.80" arrivalLane="-road2_0" arrivalPos="19.96" arrivalPosLat="0.00" arrivalSpeed="12.28" duration="27.20" routeLength="122.77" waitingTime="1.60" waitingCount="1" stopTime="0.00" timeLoss="16.14" rerouteNo="1" devices="tripinfo_vehicle_64 routing_vehicle_64 emissions_vehicle_64 battery_vehicle_64" vType="human" speedFactor="0.94" vaporized="">
        <emissions CO_abs="0" CO2_abs="0" HC_abs="0" PMx_abs="0" NOx_abs="0" fuel_abs="0" electricity_abs="56.238216"/>
    </tripinfo>
    <tripinfo id="vehicle_22" depart="22.40" departLane="road3_0" departPos="4.10" departPosLat="0.00" departSpeed="2.18" departDelay="5.20" arrival="41.20" arrivalLane="-road2_0" arrivalPos="19.96" arrivalPosLat="0.00" arrivalSpeed="12.03" duration="18.80" routeLength="122.77" waitingTime="0.00" waitingCount="0" stopTime="0.00" timeLoss="8.32" rerouteNo="1" devices="tripinfo_vehicle_22 routing_vehicle_22 emissions_vehicle_22 battery_vehicle_22" vType="human" speedFactor="0.97" vaporized="">
        <emissions CO_abs="0" CO2_abs="0" HC_abs="0" PMx_abs="0" NOx_abs="0" fuel_abs="0" electricity_abs="54.969674"/>
    </tripinfo>
    <tripinfo id="vehicle_76" depart="25.60" departLane="road0_0" departPos="4.10" departPosLat="0.00" departSpeed="2.54" departDelay="12.40" arrival="41.60" arrivalLane="-road3_0" arrivalPos="19.96" arrivalPosLat="0.00" arrivalSpeed="13.25" duration="16.00" routeLength="122.77" waitingTime="0.00" waitingCount="0" stopTime="0.00" timeLoss="5.42" rerouteNo="0" devices="tripinfo_vehicle_76 emissions_vehicle_76 battery_vehicle_76" vType="human" speedFactor="1.03" vaporized="">
        <emissions CO_abs="0" CO2_abs="0" HC_abs="0" PMx_abs="0" NOx_abs="0" fuel_abs="0" electricity_abs="68.520395"/>
    </tripinfo>
    <tripinfo id="vehicle_12" depart="18.80" departLane="road2_0" departPos="4.10" departPosLat="0.00" departSpeed="1.38" departDelay="8.80" arrival="42.80" arrivalLane="-road0_0" arrivalPos="19.96" arrivalPosLat="0.00" arrivalSpeed="12.37" duration="24.00" routeLength="206.37" waitingTime="0.00" waitingCount="0" stopTime="0.00" timeLoss="7.70" rerouteNo="1" devices="tripinfo_vehicle_12 routing_vehicle_12 emissions_vehicle_12 battery_vehicle_12" vType="human" speedFactor="1.05" vaporized="">
        <emissions CO_abs="0" CO2_abs="0" HC_abs="0" PMx_abs="0" NOx_abs="0" fuel_abs="0" electricity_abs="82.457188"/>
    </tripinfo>
    <tripinfo id="vehicle_30" depart="7.20" departLane="road2_0" departPos="4.10" departPosLat="0.00" departSpeed="0.44" departDelay="2.00" arrival="44.00" arrivalLane="-road3_0" arrivalPos="19.96" arrivalPosLat="0.00" arrivalSpeed="13.32" duration="36.80" routeLength="289.97" waitingTime="4.40" waitingCount="1" stopTime="0.00" timeLoss="14.53" rerouteNo="1" devices="tripinfo_vehicle_30 routing_vehicle_30 emissions_vehicle_30 battery_vehicle_30" vType="human" speedFactor="1.18" vaporized="">
        <emissions CO_abs="0" CO2_abs="0" HC_abs="0" PMx_abs="0" NOx_abs="0" fuel_abs="0" electricity_abs="111.433654"/>
    </tripinfo>
    <tripinfo id="vehicle_74" depart="14.00" departLane="road0_0" departPos="4.10" departPosLat="0.00" departSpeed="2.18" departDelay="2.40" arrival="45.20" arrivalLane="-road2_0" arrivalPos="19.96" arrivalPosLat="0.00" arrivalSpeed="11.37" duration="31.20" routeLength="206.37" waitingTime="3.60" waitingCount="1" stopTime="0.00" timeLoss="14.05" rerouteNo="0" devices="tripinfo_vehicle_74 emissions_vehicle_74 battery_vehicle_74" vType="human" speedFactor="0.96" vaporized="">
        <emissions CO_abs="0" CO2_abs="0" HC_abs="0" PMx_abs="0" NOx_abs="0" fuel_abs="0" electricity_abs="73.670256"/>
    </tripinfo>
    <tripinfo id="vehicle_2" depart="29.60" departLane="road0_0" departPos="4.10" departPosLat="0.00" departSpeed="2.41" departDelay="12.80" arrival="48.40" arrivalLane="-road3_0" arrivalPos="19.96" arrivalPosLat="0.00" arrivalSpeed="11.57" duration="18.80" routeLength="122.77" waitingTime="0.00" waitingCount="0" stopTime="0.00" timeLoss="8.46" rerouteNo="0" devices="tripinfo_vehicle_2 emissions_vehicle_2 battery_vehicle_2" vType="human" speedFactor="1.01" vaporized="">
        <emissions CO_abs="0" CO2_abs="0" HC_abs="0" PMx_abs="0" NOx_abs="0" fuel_abs="0" electricity_abs="50.740221"/>
    </tripinfo>
    <tripinfo id="vehicle_53" depart="9.20" departLane="road0_0" departPos="4.10" departPosLat="0.00" departSpeed="2.17" departDelay="2.40" arrival="49.20" arrivalLane="-road1_0" arrivalPos="19.96" arrivalPosLat="0.00" arrivalSpeed="13.39" duration="40.00" routeLength="289.97" waitingTime="5.20" waitingCount="2" stopTime="0.00" timeLoss="17.45" rerouteNo="0" devices="tripinfo_vehicle_53 emissions_vehicle_53 battery_vehicle_53" vType="human" speedFactor="1.10" vaporized="">
        <emissions CO_abs="0" CO2_abs="0" HC_abs="0" PMx_abs="0" NOx_abs="0" fuel_abs="0" electricity_abs="106.263523"/>
    </tripinfo>
    <tripinfo id="vehicle_72" depart="9.20" departLane="road3_0" departPos="4.10" departPosLat="0.00" departSpeed="2.41" departDelay="2.80" arrival="49.20" arrivalLane="-road0_0" arrivalPos="19.96" arrivalPosLat="0.00" arrivalSpeed="10.90" duration="40.00" routeLength="289.97" waitingTime="2.80" waitingCount="1" stopTime="0.00" timeLoss="16.29" rerouteNo="1" devices="tripinfo_vehicle_72 routing_vehicle_72 emissions_vehicle_72 battery_vehicle_72" vType="human" speedFactor="0.94" vaporized="">
        <emissions CO_abs="0" CO2_abs="0" HC_abs="0" PMx_abs="0" NOx_abs="0" fuel_abs="0" electricity_abs="85.743754"/>
    </tripinfo>
    <tripinfo id="vehicle_28" depart="33.60" departLane="road0_0" departPos="4.10" departPosLat="0.00" departSpeed="3.05" departDelay="16.40" arrival="50.80" arrivalLane="-road3_0" arrivalPos="19.96" arrivalPosLat="0.00" arrivalSpeed="12.60" duration="17.20" routeLength="122.77" waitingTime="0.00" waitingCount="0" stopTime="0.00" timeLoss="7.21" rerouteNo="0" devices="tripinfo_vehicle_28 emissions_vehicle_28 battery_vehicle_28" vType="human" speedFactor="1.13" vaporized="">
        <emissions CO_abs="0" CO2_abs="0" HC_abs="0" PMx_abs="0" NOx_abs="0" fuel_abs="0" electricity_abs="60.215888"/>
    </tripinfo>
    <tripinfo id="vehicle_54" depart="11.60" departLane="road0_0" departPos="4.10" departPosLat="0.00" departSpeed="2.20" departDelay="4.80" arrival="51.20" arrivalLane="-road1_0" arrivalPos="19.96" arrivalPosLat="0.00" arrivalSpeed="12.36" duration="39.60" routeLength="289.97" waitingTime="4.40" waitingCount="1" stopTime="0.00" timeLoss="17.27" rerouteNo="0" devices="tripinfo_vehicle_54 emissions_vehicle_54 battery_vehicle_54" vType="human" speedFactor="1.00" vaporized="">
        <emissions CO_abs="0" CO2_abs="0" HC_abs="0" PMx_abs="0" NOx_abs="0" fuel_abs="0" electricity_abs="97.037089"/>
    </tripinfo>
    <tripinfo id="vehicle_44" depart="19.60" departLane="road3_0" departPos="4.10" departPosLat="0.00" departSpeed="1.03" departDelay="9.20" arrival="52.00" arrivalLane="-road0_0" arrivalPos="19.96" arrivalPosLat="0.00" arrivalSpeed="11.88" duration="32.40" routeLength="289.97" waitingTime="0.00" waitingCount="0" stopTime="0.00" timeLoss="9.98" rerouteNo="1" devices="tripinfo_vehicle_44 routing_vehicle_44 emissions_vehicle_44 battery_vehicle_44" vType="human" speedFactor="1.04" vaporized="">
        <emissions CO_abs="0" CO2_abs="0" HC_abs="0" PMx_abs="0" NOx_abs="0" fuel_abs="0" electricity_abs="95.860878"/>
    </tripinfo>
    <tripinfo id="vehicle_3" depart="21.20" departLane="road2_0" departPos="4.10" departPosLat="0.00" departSpeed="3.25" departDelay="10.40" arrival="52.80" arrivalLane="-road3_0" arrivalPos="19.96" arrivalPosLat="0.00" arrivalSpeed="11.80" duration="31.60" routeLength="289.97" waitingTime="0.00" waitingCount="0" stopTime="0.00" timeLoss="9.41" rerouteNo="1" devices="tripinfo_vehicle_3 routing_vehicle_3 emissions_vehicle_3 battery_vehicle_3" vType="human" speedFactor="1.08" vaporized="">
        <emissions CO_abs="0" CO2_abs="0" HC_abs="0" PMx_abs="0" NOx_abs="0" fuel_abs="0" electricity_abs="94.944128"/>
    </tripinfo>
    <tripinfo id="vehicle_0" depart="35.60" departLane="road0_0" departPos="4.10" departPosLat="0.00" departSpeed="2.12" departDelay="18.00" arrival="54.80" arrivalLane="-road3_0" arrivalPos="19.96" arrivalPosLat="0.00" arrivalSpeed="13.28" duration="19.20" routeLength="122.77" waitingTime="0.00" waitingCount="0" stopTime="0.00" timeLoss="8.83" rerouteNo="0" devices="tripinfo_vehicle_0 emissions_vehicle_0 battery_vehicle_0" vType="human" speedFactor="1.06" vaporized="">
        <emissions CO_abs="0" CO2_abs="0" HC_abs="0" PMx_abs="0" NOx_abs="0" fuel_abs="0" electricity_abs="64.373587"/>
    </tripinfo>
    <tripinfo id="vehicle_57" depart="23.20" departLane="road0_0" departPos="4.10" departPosLat="0.00" departSpeed="1.80" departDelay="10.80" arrival="54.80" arrivalLane="-road1_0" arrivalPos="19.96" arrivalPosLat="0.00" arrivalSpeed="12.32" duration="31.60" routeLength="289.97" waitingTime="0.00" waitingCount="0" stopTime="0.00" timeLoss="9.40" rerouteNo="0" devices="tripinfo_vehicle_57 emissions_vehicle_57 battery_vehicle_57" vType="human" speedFactor="1.14" vaporized="">
        <emissions CO_abs="0" CO2_abs="0" HC_abs="0" PMx_abs="0" NOx_abs="0" fuel_abs="0" electricity_abs="98.809808"/>
    </tripinfo>
    <tripinfo id="vehicle_37" depart="24.40" departLane="road3_0" departPos="4.10" departPosLat="0.00" departSpeed="2.46" departDelay="6.00" arrival="55.60" arrivalLane="-road2_0" arrivalPos="19.96" arrivalPosLat="0.00" arrivalSpeed="12.75" duration="31.20" routeLength="122.77" waitingTime="13.20" waitingCount="1" stopTime="0.00" timeLoss="21.26" rerouteNo="1" devices="tripinfo_vehicle_37 routing_vehicle_37 emissions_vehicle_37 battery_vehicle_37" vType="human" speedFactor="1.18" vaporized="">
        <emissions CO_abs="0" CO2_abs="0" HC_abs="0" PMx_abs="0" NOx_abs="0" fuel_abs="0" electricity_abs="68.845990"/>
    </tripinfo>
    <tripinfo id="vehicle_63" depart="23.20" departLane="road2_0" departPos="4.10" departPosLat="0.00" departSpeed="0.45" departDelay="12.00" arrival="58.80" arrivalLane="-road1_0" arrivalPos="19.96" arrivalPosLat="0.00" arrivalSpeed="10.94" duration="35.60" routeLength="122.77" waitingTime="16.40" waitingCount="1" stopTime="0.00" timeLoss="25.02" rerouteNo="1" devices="tripinfo_vehicle_63 routing_vehicle_63 emissions_vehicle_63 battery_vehicle_63" vType="human" speedFactor="0.99" vaporized="">
        <emissions CO_abs="0" CO2_abs="0" HC_abs="0" PMx_abs="0" NOx_abs="0" fuel_abs="0" electricity_abs="53.869961"/>
    </tripinfo>
    <tripinfo id="vehicle_7" depart="25.60" departLane="road2_0" departPos="4.10" departPosLat="0.00" departSpeed="1.78" departDelay="13.20" arrival="61.20" arrivalLane="-road1_0" arrivalPos="19.96" arrivalPosLat="0.00" arrivalSpeed="11.04" duration="35.60" routeLength="122.77" waitingTime="14.80" waitingCount="1" stopTime="0.00" timeLoss="24.03" rerouteNo="1" devices="tripinfo_vehicle_7 routing_vehicle_7 emissions_vehicle_7 battery_vehicle_7" vType="human" speedFactor="0.89" vaporized="">
        <emissions CO_abs="0" CO2_abs="0" HC_abs="0" PMx_abs="0" NOx_abs="0" fuel_abs="0" electricity_abs="52.113355"/>
    </tripinfo>
    <tripinfo id="vehicle_41" depart="46.40" departLane="road3_0" departPos="4.10" departPosLat="0.00" departSpeed="0.98" departDelay="25.20" arrival="63.60" arrivalLane="-road2_0" arrivalPos="19.96" arrivalPosLat="0.00" arrivalSpeed="11.72" duration="17.20" routeLength="122.77" waitingTime="0.00" waitingCount="0" stopTime="0.00" timeLoss="6.44" rerouteNo="1" devices="tripinfo_vehicle_41 routing_vehicle_41 emissions_vehicle_41 battery_vehicle_41" vType="human" speedFactor="0.96" vaporized="">
        <emissions CO_abs="0" CO2_abs="0" HC_abs="0" PMx_abs="0" NOx_abs="0" fuel_abs="0" electricity_abs="58.307249"/>
    </tripinfo>
    <tripinfo id="vehicle_45" depart="48.80" departLane="road1_0" departPos="4.10" departPosLat="0.00" departSpeed="2.23" departDelay="35.60" arrival="64.40" arrivalLane="-road0_0" arrivalPos="19.96" arrivalPosLat="0.00" arrivalSpeed="12.34" duration="15.60" routeLength="122.77" waitingTime="0.00" waitingCount="0" stopTime="0.00" timeLoss="5.48" rerouteNo="1" devices="tripinfo_vehicle_45 routing_vehicle_45 emissions_vehicle_45 battery_vehicle_45" vType="human" speedFactor="1.09" vaporized="">
        <emissions CO_abs="0" CO2_abs="0" HC_abs="0" PMx_abs="0" NOx_abs="0" fuel_abs="0" electricity_abs="62.892073"/>
    </tripinfo>
    <tripinfo id="vehicle_61" depart="38.00" departLane="road0_0" departPos="4.10" departPosLat="0.00" departSpeed="1.79" departDelay="20.40" arrival="65.60" arrivalLane="-road2_0" arrivalPos="19.96" arrivalPosLat="0.00" arrivalSpeed="12.28" duration="27.60" routeLength="206.37" waitingTime="0.00" waitingCount="0" stopTime="0.00" timeLoss="11.54" rerouteNo="0" devices="tripinfo_vehicle_61 emissions_vehicle_61 battery_vehicle_61" vType="human" speedFactor="1.12" vaporized="">
        <emissions CO_abs="0" CO2_abs="0" HC_abs="0" PMx_abs="0" NOx_abs="0" fuel_abs="0" electricity_abs="74.233228"/>
    </tripinfo>
    <tripinfo id="vehicle_11" depart="28.00" departLane="road0_0" departPos="4.10" departPosLat="0.00" departSpeed="3.82" departDelay="12.00" arrival="66.00" arrivalLane="-road1_0" arrivalPos="19.96" arrivalPosLat="0.00" arrivalSpeed="12.92" duration="38.00" routeLength="289.97" waitingTime="0.00" waitingCount="0" stopTime="0.00" timeLoss="15.19" rerouteNo="0" devices="tripinfo_vehicle_11 emissions_vehicle_11 battery_vehicle_11" vType="human" speedFactor="1.03" vaporized="">
        <emissions CO_abs="0" CO2_abs="0" HC_abs="0" PMx_abs="0" NOx_abs="0" fuel_abs="0" electricity_abs="94.861166"/>
    </tripinfo>
    <tripinfo id="vehicle_55" depart="41.60" departLane="road1_0" departPos="4.10" departPosLat="0.00" departSpeed="1.03" departDelay="33.60" arrival="67.20" arrivalLane="-road3_0" arrivalPos="19.96" arrivalPosLat="0.00" arrivalSpeed="13.05" duration="25.60" routeLength="206.37" waitingTime="0.00" waitingCount="0" stopTime="0.00" timeLoss="9.04" rerouteNo="1" devices="tripinfo_vehicle_55 routing_vehicle_55 emissions_vehicle_55 battery_vehicle_55" vType="human" speedFactor="1.00" vaporized="">
        <emissions CO_abs="0" CO2_abs="0" HC_abs="0" PMx_abs="0" NOx_abs="0" fuel_abs="0" electricity_abs="86.455808"/>
    </tripinfo>
    <tripinfo id="vehicle_79" depart="32.00" departLane="road0_0" departPos="4.10" departPosLat="0.00" departSpeed="4.17" departDelay="15.20" arrival="67.60" arrivalLane="-road1_0" arrivalPos="19.96" arrivalPosLat="0.00" arrivalSpeed="11.89" duration="35.60" routeLength="289.97" waitingTime="0.00" waitingCount="0" stopTime="0.00" timeLoss="13.42" rerouteNo="0" devices="tripinfo_vehicle_79 emissions_vehicle_79 battery_vehicle_79" vType="human" speedFactor="1.09" vaporized="">
        <emissions CO_abs="0" CO2_abs="0" HC_abs="0" PMx_abs="0" NOx_abs="0" fuel_abs="0" electricity_abs="90.422946"/>
    </tripinfo>
    <tripinfo id="vehicle_62" depart="40.40" departLane="road0_0" departPos="4.10" departPosLat="0.00" departSpeed="3.98" departDelay="20.40" arrival="68.40" arrivalLane="-road2_0" arrivalPos="19.96" arrivalPosLat="0.00" arrivalSpeed="11.86" duration="28.00" routeLength="206.37" waitingTime="0.00" waitingCount="0" stopTime="0.00" timeLoss="11.62" rerouteNo="0" devices="tripinfo_vehicle_62 emissions_vehicle_62 battery_vehicle_62" vType="human" speedFactor="1.02" vaporized="">
        <emissions CO_abs="0" CO2_abs="0" HC_abs="0" PMx_abs="0" NOx_abs="0" fuel_abs="0" electricity_abs="65.635098"/>
    </tripinfo>
    <tripinfo id="vehicle_4" depart="46.80" departLane="road1_0" departPos="4.10" departPosLat="0.00" departSpeed="1.91" departDelay="33.60" arrival="70.00" arrivalLane="-road3_0" arrivalPos="19.96" arrivalPosLat="0.00" arrivalSpeed="12.13" duration="23.20" routeLength="206.37" waitingTime="0.00" waitingCount="0" stopTime="0.00" timeLoss="6.66" rerouteNo="1" devices="tripinfo_vehicle_4 routing_vehicle_4 emissions_vehicle_4 battery_vehicle_4" vType="human" speedFactor="1.03" vaporized="">
        <emissions CO_abs="0" CO2_abs="0" HC_abs="0" PMx_abs="0" NOx_abs="0" fuel_abs="0" electricity_abs="80.898555"/>
    </tripinfo>
    <tripinfo id="vehicle_34" depart="6.80" departLane="road1_0" departPos="4.10" departPosLat="0.00" departSpeed="2.93" departDelay="1.20" arrival="70.80" arrivalLane="-road2_0" arrivalPos="19.96" arrivalPosLat="0.00" arrivalSpeed="13.03" duration="64.00" routeLength="289.97" waitingTime="26.00" waitingCount="1" stopTime="0.00" timeLoss="41.40" rerouteNo="1" devices="tripinfo_vehicle_34 routing_vehicle_34 emissions_vehicle_34 battery_vehicle_34" vType="human" speedFactor="0.99" vaporized="">
        <emissions CO_abs="0" CO2_abs="0" HC_abs="0" PMx_abs="0" NOx_abs="0" fuel_abs="0" electricity_abs="97.086766"/>
    </tripinfo>
    <tripinfo id="vehicle_65" depart="42.00" departLane="road0_0" departPos="4.10" departPosLat="0.00" departSpeed="1.61" departDelay="20.80" arrival="73.20" arrivalLane="-road2_0" arrivalPos="19.96" arrivalPosLat="0.00" arrivalSpeed="11.40" duration="31.20" routeLength="206.37" waitingTime="0.00" waitingCount="0" stopTime="0.00" timeLoss="12.69" rerouteNo="0" devices="tripinfo_vehicle_65 emissions_vehicle_65 battery_vehicle_65" vType="human" speedFactor="0.88" vaporized="">
        <emissions CO_abs="0" CO2_abs="0" HC_abs="0" PMx_abs="0" NOx_abs="0" fuel_abs="0" electricity_abs="63.298386"/>
    </tripinfo>
    <tripinfo id="vehicle_26" depart="28.80" departLane="road3_0" departPos="4.10" departPosLat="0.00" departSpeed="1.03" departDelay="8.80" arrival="73.60" arrivalLane="-road1_0" arrivalPos="19.96" arrivalPosLat="0.00" arrivalSpeed="11.74" duration="44.80" routeLength="206.37" waitingTime="11.20" waitingCount="2" stopTime="0.00" timeLoss="27.14" rerouteNo="1" devices="tripinfo_vehicle_26 routing_vehicle_26 emissions_vehicle_26 battery_vehicle_26" vType="human" speedFactor="0.92" vaporized="">
        <emissions CO_abs="0" CO2_abs="0" HC_abs="0" PMx_abs="0" NOx_abs="0" fuel_abs="0" electricity_abs="73.282857"/>
    </tripinfo>