<?xml version="1.0" encoding="UTF-8"?>

<!-- generated on 2025-08-10 10:50:05 by Eclipse SUMO sumo Version v1_20_0+0085-e155ab8699b
<configuration xmlns:xsi="http://www.w3.org/2001/XMLSchema-instance" xsi:noNamespaceSchemaLocation="http://sumo.dlr.de/xsd/sumoConfiguration.xsd">

    <input>
        <net-file value="../networks/roundabout.net.xml"/>
        <route-files value="../networks/routes_EIDM.rou.xml"/>
    </input>

    <output>
        <output-prefix value="89-"/>
        <battery-output.precision value="4"/>
        <tripinfo-output value="../networks/output_data/output_eidm/tripinfo/tripinfo-output.xml"/>
        <collision-output value="../networks/output_data/output_eidm/collision/collision-output.xml"/>
    </output>

    <time>
        <begin value="0"/>
        <step-length value="0.4"/>
    </time>

    <processing>
        <step-method.ballistic value="true"/>
        <lateral-resolution value="3.2"/>
        <collision.action value="warn"/>
        <collision.check-junctions value="True"/>
        <collision.mingap-factor value="0"/>
        <time-to-teleport value="-1"/>
        <random-depart-offset value="5"/>
    </processing>

    <report>
        <no-warnings value="True"/>
        <no-step-log value="True"/>
    </report>

    <emissions>
        <device.emissions.probability value="1"/>
    </emissions>

    <battery>
        <device.battery.probability value="1"/>
    </battery>

    <traci_server>
        <remote-port value="59919"/>
    </traci_server>

    <gui_only>
        <quit-on-end value="True"/>
        <start value="True"/>
        <delay value="0"/>
    </gui_only>

</configuration>
-->

<tripinfos xmlns:xsi="http://www.w3.org/2001/XMLSchema-instance" xsi:noNamespaceSchemaLocation="http://sumo.dlr.de/xsd/tripinfo_file.xsd">
    <tripinfo id="vehicle_61" depart="0.80" departLane="road2_0" departPos="4.10" departPosLat="0.00" departSpeed="0.10" departDelay="0.00" arrival="16.00" arrivalLane="-road1_0" arrivalPos="19.96" arrivalPosLat="0.00" arrivalSpeed="13.58" duration="15.20" routeLength="122.77" waitingTime="0.00" waitingCount="0" stopTime="0.00" timeLoss="4.82" rerouteNo="1" devices="tripinfo_vehicle_61 routing_vehicle_61 emissions_vehicle_61 battery_vehicle_61" vType="human" speedFactor="1.12" vaporized="">
        <emissions CO_abs="0" CO2_abs="0" HC_abs="0" PMx_abs="0" NOx_abs="0" fuel_abs="0" electricity_abs="73.450587"/>
    </tripinfo>
    <tripinfo id="vehicle_36" depart="1.60" departLane="road1_0" departPos="4.10" departPosLat="0.00" departSpeed="9.75" departDelay="0.00" arrival="16.40" arrivalLane="-road0_0" arrivalPos="19.96" arrivalPosLat="0.00" arrivalSpeed="12.45" duration="14.80" routeLength="122.77" waitingTime="0.00" waitingCount="0" stopTime="0.00" timeLoss="3.96" rerouteNo="1" devices="tripinfo_vehicle_36 routing_vehicle_36 emissions_vehicle_36 battery_vehicle_36" vType="human" speedFactor="0.97" vaporized="">
        <emissions CO_abs="0" CO2_abs="0" HC_abs="0" PMx_abs="0" NOx_abs="0" fuel_abs="0" electricity_abs="40.245002"/>
    </tripinfo>
    <tripinfo id="vehicle_25" depart="2.00" departLane="road0_0" departPos="4.10" departPosLat="0.00" departSpeed="4.19" departDelay="0.40" arrival="18.80" arrivalLane="-road3_0" arrivalPos="19.96" arrivalPosLat="0.00" arrivalSpeed="10.74" duration="16.80" routeLength="122.77" waitingTime="0.00" waitingCount="0" stopTime="0.00" timeLoss="4.91" rerouteNo="0" devices="tripinfo_vehicle_25 emissions_vehicle_25 battery_vehicle_25" vType="human" speedFactor="0.87" vaporized="">
        <emissions CO_abs="0" CO2_abs="0" HC_abs="0" PMx_abs="0" NOx_abs="0" fuel_abs="0" electricity_abs="46.282157"/>
    </tripinfo>
    <tripinfo id="vehicle_32" depart="5.60" departLane="road3_0" departPos="4.10" departPosLat="0.00" departSpeed="2.74" departDelay="0.80" arrival="22.00" arrivalLane="-road2_0" arrivalPos="19.96" arrivalPosLat="0.00" arrivalSpeed="12.47" duration="16.40" routeLength="122.77" waitingTime="0.00" waitingCount="0" stopTime="0.00" timeLoss="6.35" rerouteNo="1" devices="tripinfo_vehicle_32 routing_vehicle_32 emissions_vehicle_32 battery_vehicle_32" vType="human" speedFactor="1.01" vaporized="">
        <emissions CO_abs="0" CO2_abs="0" HC_abs="0" PMx_abs="0" NOx_abs="0" fuel_abs="0" electricity_abs="63.693354"/>
    </tripinfo>
    <tripinfo id="vehicle_43" depart="5.60" departLane="road0_0" departPos="4.10" departPosLat="0.00" departSpeed="0.68" departDelay="4.00" arrival="23.20" arrivalLane="-road3_0" arrivalPos="19.96" arrivalPosLat="0.00" arrivalSpeed="13.66" duration="17.60" routeLength="122.77" waitingTime="0.00" waitingCount="0" stopTime="0.00" timeLoss="6.91" rerouteNo="0" devices="tripinfo_vehicle_43 emissions_vehicle_43 battery_vehicle_43" vType="human" speedFactor="1.04" vaporized="">
        <emissions CO_abs="0" CO2_abs="0" HC_abs="0" PMx_abs="0" NOx_abs="0" fuel_abs="0" electricity_abs="70.475851"/>
    </tripinfo>
    <tripinfo id="vehicle_1" depart="7.60" departLane="road0_0" departPos="4.10" departPosLat="0.00" departSpeed="2.43" departDelay="2.80" arrival="25.60" arrivalLane="-road3_0" arrivalPos="19.96" arrivalPosLat="0.00" arrivalSpeed="12.06" duration="18.00" routeLength="122.77" waitingTime="0.00" waitingCount="0" stopTime="0.00" timeLoss="6.98" rerouteNo="0" devices="tripinfo_vehicle_1 emissions_vehicle_1 battery_vehicle_1" vType="human" speedFactor="0.94" vaporized="">
        <emissions CO_abs="0" CO2_abs="0" HC_abs="0" PMx_abs="0" NOx_abs="0" fuel_abs="0" electricity_abs="56.349335"/>
    </tripinfo>
    <tripinfo id="vehicle_18" depart="2.80" departLane="road2_0" departPos="4.10" departPosLat="0.00" departSpeed="3.86" departDelay="0.00" arrival="26.80" arrivalLane="-road0_0" arrivalPos="19.96" arrivalPosLat="0.00" arrivalSpeed="12.74" duration="24.00" routeLength="206.37" waitingTime="0.00" waitingCount="0" stopTime="0.00" timeLoss="6.51" rerouteNo="1" devices="tripinfo_vehicle_18 routing_vehicle_18 emissions_vehicle_18 battery_vehicle_18" vType="human" speedFactor="0.94" vaporized="">
        <emissions CO_abs="0" CO2_abs="0" HC_abs="0" PMx_abs="0" NOx_abs="0" fuel_abs="0" electricity_abs="77.473123"/>
    </tripinfo>
    <tripinfo id="vehicle_24" depart="1.60" departLane="road3_0" departPos="4.10" departPosLat="0.00" departSpeed="0.98" departDelay="0.00" arrival="27.20" arrivalLane="-road1_0" arrivalPos="19.96" arrivalPosLat="0.00" arrivalSpeed="11.23" duration="25.60" routeLength="206.37" waitingTime="0.00" waitingCount="0" stopTime="0.00" timeLoss="5.71" rerouteNo="1" devices="tripinfo_vehicle_24 routing_vehicle_24 emissions_vehicle_24 battery_vehicle_24" vType="human" speedFactor="0.83" vaporized="">
        <emissions CO_abs="0" CO2_abs="0" HC_abs="0" PMx_abs="0" NOx_abs="0" fuel_abs="0" electricity_abs="69.090233"/>
    </tripinfo>
    <tripinfo id="vehicle_26" depart="3.60" departLane="road0_0" departPos="4.10" departPosLat="0.00" departSpeed="2.30" departDelay="2.00" arrival="29.20" arrivalLane="-road2_0" arrivalPos="19.96" arrivalPosLat="0.00" arrivalSpeed="12.35" duration="25.60" routeLength="206.37" waitingTime="0.00" waitingCount="0" stopTime="0.00" timeLoss="7.59" rerouteNo="0" devices="tripinfo_vehicle_26 emissions_vehicle_26 battery_vehicle_26" vType="human" speedFactor="0.92" vaporized="">
        <emissions CO_abs="0" CO2_abs="0" HC_abs="0" PMx_abs="0" NOx_abs="0" fuel_abs="0" electricity_abs="76.697701"/>
    </tripinfo>
    <tripinfo id="vehicle_19" depart="1.20" departLane="road0_0" departPos="4.10" departPosLat="0.00" departSpeed="8.17" departDelay="0.00" arrival="29.60" arrivalLane="-road1_0" arrivalPos="19.96" arrivalPosLat="0.00" arrivalSpeed="12.28" duration="28.40" routeLength="289.97" waitingTime="0.00" waitingCount="0" stopTime="0.00" timeLoss="6.21" rerouteNo="0" devices="tripinfo_vehicle_19 emissions_vehicle_19 battery_vehicle_19" vType="human" speedFactor="1.16" vaporized="">
        <emissions CO_abs="0" CO2_abs="0" HC_abs="0" PMx_abs="0" NOx_abs="0" fuel_abs="0" electricity_abs="83.800961"/>
    </tripinfo>
    <tripinfo id="vehicle_12" depart="0.80" departLane="road3_0" departPos="4.10" departPosLat="0.00" departSpeed="6.33" departDelay="0.00" arrival="31.20" arrivalLane="-road0_0" arrivalPos="19.96" arrivalPosLat="0.00" arrivalSpeed="12.21" duration="30.40" routeLength="289.97" waitingTime="0.00" waitingCount="0" stopTime="0.00" timeLoss="8.05" rerouteNo="1" devices="tripinfo_vehicle_12 routing_vehicle_12 emissions_vehicle_12 battery_vehicle_12" vType="human" speedFactor="1.05" vaporized="">
        <emissions CO_abs="0" CO2_abs="0" HC_abs="0" PMx_abs="0" NOx_abs="0" fuel_abs="0" electricity_abs="92.508288"/>
    </tripinfo>
    <tripinfo id="vehicle_45" depart="4.00" departLane="road1_0" departPos="4.10" departPosLat="0.00" departSpeed="2.61" departDelay="0.00" arrival="32.00" arrivalLane="-road2_0" arrivalPos="19.96" arrivalPosLat="0.00" arrivalSpeed="12.52" duration="28.00" routeLength="289.97" waitingTime="0.00" waitingCount="0" stopTime="0.00" timeLoss="5.62" rerouteNo="1" devices="tripinfo_vehicle_45 routing_vehicle_45 emissions_vehicle_45 battery_vehicle_45" vType="human" speedFactor="1.09" vaporized="">
        <emissions CO_abs="0" CO2_abs="0" HC_abs="0" PMx_abs="0" NOx_abs="0" fuel_abs="0" electricity_abs="105.619694"/>
    </tripinfo>
    <tripinfo id="vehicle_15" depart="7.60" departLane="road3_0" departPos="4.10" departPosLat="0.00" departSpeed="1.93" departDelay="2.00" arrival="32.80" arrivalLane="-road1_0" arrivalPos="19.96" arrivalPosLat="0.00" arrivalSpeed="11.43" duration="25.20" routeLength="206.37" waitingTime="0.00" waitingCount="0" stopTime="0.00" timeLoss="7.78" rerouteNo="1" devices="tripinfo_vehicle_15 routing_vehicle_15 emissions_vehicle_15 battery_vehicle_15" vType="human" speedFactor="0.93" vaporized="">
        <emissions CO_abs="0" CO2_abs="0" HC_abs="0" PMx_abs="0" NOx_abs="0" fuel_abs="0" electricity_abs="72.862264"/>
    </tripinfo>
    <tripinfo id="vehicle_59" depart="9.60" departLane="road1_0" departPos="4.10" departPosLat="0.00" departSpeed="2.90" departDelay="2.00" arrival="37.20" arrivalLane="-road3_0" arrivalPos="19.96" arrivalPosLat="0.00" arrivalSpeed="12.07" duration="27.60" routeLength="206.37" waitingTime="0.00" waitingCount="0" stopTime="0.00" timeLoss="10.85" rerouteNo="1" devices="tripinfo_vehicle_59 routing_vehicle_59 emissions_vehicle_59 battery_vehicle_59" vType="human" speedFactor="0.97" vaporized="">
        <emissions CO_abs="0" CO2_abs="0" HC_abs="0" PMx_abs="0" NOx_abs="0" fuel_abs="0" electricity_abs="72.355667"/>
    </tripinfo>
    <tripinfo id="vehicle_23" depart="4.40" departLane="road2_0" departPos="4.10" departPosLat="0.00" departSpeed="3.29" departDelay="1.60" arrival="38.00" arrivalLane="-road1_0" arrivalPos="19.96" arrivalPosLat="0.00" arrivalSpeed="11.95" duration="33.60" routeLength="122.77" waitingTime="14.40" waitingCount="2" stopTime="0.00" timeLoss="21.83" rerouteNo="1" devices="tripinfo_vehicle_23 routing_vehicle_23 emissions_vehicle_23 battery_vehicle_23" vType="human" speedFactor="0.89" vaporized="">
        <emissions CO_abs="0" CO2_abs="0" HC_abs="0" PMx_abs="0" NOx_abs="0" fuel_abs="0" electricity_abs="57.154251"/>
    </tripinfo>
    <tripinfo id="vehicle_48" depart="5.60" departLane="road1_0" departPos="4.10" departPosLat="0.00" departSpeed="0.39" departDelay="1.20" arrival="38.00" arrivalLane="-road2_0" arrivalPos="19.96" arrivalPosLat="0.00" arrivalSpeed="11.46" duration="32.40" routeLength="289.97" waitingTime="0.00" waitingCount="0" stopTime="0.00" timeLoss="7.05" rerouteNo="1" devices="tripinfo_vehicle_48 routing_vehicle_48 emissions_vehicle_48 battery_vehicle_48" vType="human" speedFactor="0.88" vaporized="">
        <emissions CO_abs="0" CO2_abs="0" HC_abs="0" PMx_abs="0" NOx_abs="0" fuel_abs="0" electricity_abs="87.270951"/>
    </tripinfo>
    <tripinfo id="vehicle_39" depart="3.60" departLane="road3_0" departPos="4.10" departPosLat="0.00" departSpeed="2.72" departDelay="0.80" arrival="38.80" arrivalLane="-road0_0" arrivalPos="19.96" arrivalPosLat="0.00" arrivalSpeed="11.51" duration="35.20" routeLength="289.97" waitingTime="0.00" waitingCount="0" stopTime="0.00" timeLoss="10.30" rerouteNo="1" devices="tripinfo_vehicle_39 routing_vehicle_39 emissions_vehicle_39 battery_vehicle_39" vType="human" speedFactor="0.90" vaporized="">
        <emissions CO_abs="0" CO2_abs="0" HC_abs="0" PMx_abs="0" NOx_abs="0" fuel_abs="0" electricity_abs="84.962361"/>
    </tripinfo>
    <tripinfo id="rl_0" depart="12.00" departLane="road0_0" departPos="4.10" departPosLat="0.00" departSpeed="1.13" departDelay="5.20" arrival="40.00" arrivalLane="-road2_0" arrivalPos="19.96" arrivalPosLat="0.00" arrivalSpeed="7.09" duration="28.00" routeLength="206.37" waitingTime="0.00" waitingCount="0" stopTime="0.00" timeLoss="11.72" rerouteNo="0" devices="tripinfo_rl_0 emissions_rl_0 battery_rl_0 driverstaterl_0" vType="rlAnget" speedFactor="1.03" vaporized="">
        <emissions CO_abs="0" CO2_abs="0" HC_abs="0" PMx_abs="0" NOx_abs="0" fuel_abs="0" electricity_abs="53.050855"/>
    </tripinfo>
    <tripinfo id="vehicle_51" depart="18.80" departLane="road1_0" departPos="4.10" departPosLat="0.00" departSpeed="2.45" departDelay="7.20" arrival="40.80" arrivalLane="-road0_0" arrivalPos="19.96" arrivalPosLat="0.00" arrivalSpeed="11.69" duration="22.00" routeLength="122.77" waitingTime="0.00" waitingCount="0" stopTime="0.00" timeLoss="11.79" rerouteNo="1" devices="tripinfo_vehicle_51 routing_vehicle_51 emissions_vehicle_51 battery_vehicle_51" vType="human" speedFactor="1.17" vaporized="">
        <emissions CO_abs="0" CO2_abs="0" HC_abs="0" PMx_abs="0" NOx_abs="0" fuel_abs="0" electricity_abs="52.080089"/>
    </tripinfo>
    <tripinfo id="vehicle_27" depart="11.60" departLane="road1_0" departPos="4.10" departPosLat="0.00" departSpeed="2.69" departDelay="3.20" arrival="41.20" arrivalLane="-road3_0" arrivalPos="19.96" arrivalPosLat="0.00" arrivalSpeed="12.64" duration="29.60" routeLength="206.37" waitingTime="0.00" waitingCount="0" stopTime="0.00" timeLoss="12.25" rerouteNo="1" devices="tripinfo_vehicle_27 routing_vehicle_27 emissions_vehicle_27 battery_vehicle_27" vType="human" speedFactor="0.95" vaporized="">
        <emissions CO_abs="0" CO2_abs="0" HC_abs="0" PMx_abs="0" NOx_abs="0" fuel_abs="0" electricity_abs="73.866123"/>
    </tripinfo>
    <tripinfo id="vehicle_46" depart="10.00" departLane="road0_0" departPos="4.10" departPosLat="0.00" departSpeed="3.03" departDelay="3.60" arrival="42.40" arrivalLane="-road1_0" arrivalPos="19.96" arrivalPosLat="0.00" arrivalSpeed="12.06" duration="32.40" routeLength="289.97" waitingTime="0.00" waitingCount="0" stopTime="0.00" timeLoss="9.91" rerouteNo="0" devices="tripinfo_vehicle_46 emissions_vehicle_46 battery_vehicle_46" vType="human" speedFactor="1.00" vaporized="">
        <emissions CO_abs="0" CO2_abs="0" HC_abs="0" PMx_abs="0" NOx_abs="0" fuel_abs="0" electricity_abs="95.667961"/>
    </tripinfo>
    <tripinfo id="vehicle_22" depart="7.60" departLane="road1_0" departPos="4.10" departPosLat="0.00" departSpeed="0.66" departDelay="0.80" arrival="42.80" arrivalLane="-road2_0" arrivalPos="19.96" arrivalPosLat="0.00" arrivalSpeed="13.29" duration="35.20" routeLength="289.97" waitingTime="0.00" waitingCount="0" stopTime="0.00" timeLoss="12.17" rerouteNo="1" devices="tripinfo_vehicle_22 routing_vehicle_22 emissions_vehicle_22 battery_vehicle_22" vType="human" speedFactor="0.97" vaporized="">
        <emissions CO_abs="0" CO2_abs="0" HC_abs="0" PMx_abs="0" NOx_abs="0" fuel_abs="0" electricity_abs="98.274820"/>
    </tripinfo>
    <tripinfo id="vehicle_5" depart="21.20" departLane="road1_0" departPos="4.10" departPosLat="0.00" departSpeed="3.38" departDelay="8.80" arrival="43.60" arrivalLane="-road0_0" arrivalPos="19.96" arrivalPosLat="0.00" arrivalSpeed="11.50" duration="22.40" routeLength="122.77" waitingTime="0.00" waitingCount="0" stopTime="0.00" timeLoss="9.98" rerouteNo="1" devices="tripinfo_vehicle_5 routing_vehicle_5 emissions_vehicle_5 battery_vehicle_5" vType="human" speedFactor="0.83" vaporized="">
        <emissions CO_abs="0" CO2_abs="0" HC_abs="0" PMx_abs="0" NOx_abs="0" fuel_abs="0" electricity_abs="46.353711"/>
    </tripinfo>
    <tripinfo id="vehicle_54" depart="14.00" departLane="road1_0" departPos="4.10" departPosLat="0.00" departSpeed="0.84" departDelay="3.60" arrival="43.60" arrivalLane="-road3_0" arrivalPos="19.96" arrivalPosLat="0.00" arrivalSpeed="13.14" duration="29.60" routeLength="206.37" waitingTime="0.00" waitingCount="0" stopTime="0.00" timeLoss="12.93" rerouteNo="1" devices="tripinfo_vehicle_54 routing_vehicle_54 emissions_vehicle_54 battery_vehicle_54" vType="human" speedFactor="1.00" vaporized="">
        <emissions CO_abs="0" CO2_abs="0" HC_abs="0" PMx_abs="0" NOx_abs="0" fuel_abs="0" electricity_abs="78.771589"/>
    </tripinfo>
    <tripinfo id="vehicle_31" depart="10.00" departLane="road3_0" departPos="4.10" departPosLat="0.00" departSpeed="1.17" departDelay="4.40" arrival="44.80" arrivalLane="-road2_0" arrivalPos="19.96" arrivalPosLat="0.00" arrivalSpeed="12.90" duration="34.80" routeLength="122.77" waitingTime="13.20" waitingCount="1" stopTime="0.00" timeLoss="24.58" rerouteNo="1" devices="tripinfo_vehicle_31 routing_vehicle_31 emissions_vehicle_31 battery_vehicle_31" vType="human" speedFactor="1.15" vaporized="">
        <emissions CO_abs="0" CO2_abs="0" HC_abs="0" PMx_abs="0" NOx_abs="0" fuel_abs="0" electricity_abs="64.872779"/>
    </tripinfo>
    <tripinfo id="vehicle_9" depart="16.80" departLane="road1_0" departPos="4.10" departPosLat="0.00" departSpeed="2.78" departDelay="5.20" arrival="46.40" arrivalLane="-road3_0" arrivalPos="19.96" arrivalPosLat="0.00" arrivalSpeed="11.13" duration="29.60" routeLength="206.37" waitingTime="0.00" waitingCount="0" stopTime="0.00" timeLoss="10.50" rerouteNo="1" devices="tripinfo_vehicle_9 routing_vehicle_9 emissions_vehicle_9 battery_vehicle_9" vType="human" speedFactor="0.86" vaporized="">
        <emissions CO_abs="0" CO2_abs="0" HC_abs="0" PMx_abs="0" NOx_abs="0" fuel_abs="0" electricity_abs="61.503113"/>
    </tripinfo>
    <tripinfo id="vehicle_74" depart="25.60" departLane="road1_0" departPos="4.10" departPosLat="0.00" departSpeed="3.31" departDelay="11.20" arrival="46.40" arrivalLane="-road0_0" arrivalPos="19.96" arrivalPosLat="0.00" arrivalSpeed="11.98" duration="20.80" routeLength="122.77" waitingTime="0.00" waitingCount="0" stopTime="0.00" timeLoss="9.81" rerouteNo="1" devices="tripinfo_vehicle_74 routing_vehicle_74 emissions_vehicle_74 battery_vehicle_74" vType="human" speedFactor="0.96" vaporized="">
        <emissions CO_abs="0" CO2_abs="0" HC_abs="0" PMx_abs="0" NOx_abs="0" fuel_abs="0" electricity_abs="51.315873"/>
    </tripinfo>
    <tripinfo id="vehicle_37" depart="8.80" departLane="road2_0" departPos="4.10" departPosLat="0.00" departSpeed="1.47" departDelay="4.00" arrival="51.60" arrivalLane="-road0_0" arrivalPos="19.96" arrivalPosLat="0.00" arrivalSpeed="12.63" duration="42.80" routeLength="206.37" waitingTime="14.00" waitingCount="3" stopTime="0.00" timeLoss="26.75" rerouteNo="1" devices="tripinfo_vehicle_37 routing_vehicle_37 emissions_vehicle_37 battery_vehicle_37" vType="human" speedFactor="1.18" vaporized="">
        <emissions CO_abs="0" CO2_abs="0" HC_abs="0" PMx_abs="0" NOx_abs="0" fuel_abs="0" electricity_abs="90.157724"/>
    </tripinfo>
    <tripinfo id="vehicle_66" depart="32.00" departLane="road3_0" departPos="4.10" departPosLat="0.00" departSpeed="0.96" departDelay="20.00" arrival="51.60" arrivalLane="-road2_0" arrivalPos="19.96" arrivalPosLat="0.00" arrivalSpeed="10.62" duration="19.60" routeLength="122.77" waitingTime="0.00" waitingCount="0" stopTime="0.00" timeLoss="8.33" rerouteNo="1" devices="tripinfo_vehicle_66 routing_vehicle_66 emissions_vehicle_66 battery_vehicle_66" vType="human" speedFactor="0.91" vaporized="">
        <emissions CO_abs="0" CO2_abs="0" HC_abs="0" PMx_abs="0" NOx_abs="0" fuel_abs="0" electricity_abs="47.081940"/>
    </tripinfo>
    <tripinfo id="vehicle_49" depart="35.60" departLane="road2_0" departPos="4.10" departPosLat="0.00" departSpeed="1.11" departDelay="28.40" arrival="54.00" arrivalLane="-road1_0" arrivalPos="19.96" arrivalPosLat="0.00" arrivalSpeed="10.83" duration="18.40" routeLength="122.77" waitingTime="0.00" waitingCount="0" stopTime="0.00" timeLoss="5.96" rerouteNo="1" devices="tripinfo_vehicle_49 routing_vehicle_49 emissions_vehicle_49 battery_vehicle_49" vType="human" speedFactor="0.85" vaporized="">
        <emissions CO_abs="0" CO2_abs="0" HC_abs="0" PMx_abs="0" NOx_abs="0" fuel_abs="0" electricity_abs="50.671061"/>
    </tripinfo>
    <tripinfo id="vehicle_67" depart="34.80" departLane="road3_0" departPos="4.10" departPosLat="0.00" departSpeed="3.34" departDelay="19.60" arrival="54.00" arrivalLane="-road2_0" arrivalPos="19.96" arrivalPosLat="0.00" arrivalSpeed="12.25" duration="19.20" routeLength="122.77" waitingTime="0.00" waitingCount="0" stopTime="0.00" timeLoss="7.68" rerouteNo="1" devices="tripinfo_vehicle_67 routing_vehicle_67 emissions_vehicle_67 battery_vehicle_67" vType="human" speedFactor="0.91" vaporized="">
        <emissions CO_abs="0" CO2_abs="0" HC_abs="0" PMx_abs="0" NOx_abs="0" fuel_abs="0" electricity_abs="54.431280"/>
    </tripinfo>
    <tripinfo id="vehicle_17" depart="26.40" departLane="road2_0" departPos="4.10" departPosLat="0.00" departSpeed="1.27" departDelay="21.20" arrival="55.60" arrivalLane="-road0_0" arrivalPos="19.96" arrivalPosLat="0.00" arrivalSpeed="11.52" duration="29.20" routeLength="206.37" waitingTime="2.00" waitingCount="1" stopTime="0.00" timeLoss="11.85" rerouteNo="1" devices="tripinfo_vehicle_17 routing_vehicle_17 emissions_vehicle_17 battery_vehicle_17" vType="human" speedFactor="0.94" vaporized="">
        <emissions CO_abs="0" CO2_abs="0" HC_abs="0" PMx_abs="0" NOx_abs="0" fuel_abs="0" electricity_abs="74.857527"/>
    </tripinfo>
    <tripinfo id="vehicle_60" depart="6.40" departLane="road2_0" departPos="4.10" departPosLat="0.00" departSpeed="2.40" departDelay="3.60" arrival="55.60" arrivalLane="-road3_0" arrivalPos="19.96" arrivalPosLat="0.00" arrivalSpeed="12.41" duration="49.20" routeLength="289.97" waitingTime="12.40" waitingCount="1" stopTime="0.00" timeLoss="27.07" rerouteNo="1" devices="tripinfo_vehicle_60 routing_vehicle_60 emissions_vehicle_60 battery_vehicle_60" vType="human" speedFactor="1.08" vaporized="">
        <emissions CO_abs="0" CO2_abs="0" HC_abs="0" PMx_abs="0" NOx_abs="0" fuel_abs="0" electricity_abs="96.121383"/>
    </tripinfo>
    <tripinfo id="vehicle_0" depart="12.80" departLane="road3_0" departPos="4.10" departPosLat="0.00" departSpeed="2.08" departDelay="4.80" arrival="56.00" arrivalLane="-road1_0" arrivalPos="19.96" arrivalPosLat="0.00" arrivalSpeed="12.55" duration="43.20" routeLength="206.37" waitingTime="12.40" waitingCount="1" stopTime="0.00" timeLoss="26.98" rerouteNo="1" devices="tripinfo_vehicle_0 routing_vehicle_0 emissions_vehicle_0 battery_vehicle_0" vType="human" speedFactor="1.06" vaporized="">
        <emissions CO_abs="0" CO2_abs="0" HC_abs="0" PMx_abs="0" NOx_abs="0" fuel_abs="0" electricity_abs="76.401042"/>
    </tripinfo>
    <tripinfo id="vehicle_28" depart="15.20" departLane="road0_0" departPos="4.10" departPosLat="0.00" departSpeed="3.61" departDelay="7.60" arrival="56.40" arrivalLane="-road2_0" arrivalPos="19.96" arrivalPosLat="0.00" arrivalSpeed="12.32" duration="41.20" routeLength="206.37" waitingTime="13.20" waitingCount="1" stopTime="0.00" timeLoss="25.31" rerouteNo="0" devices="tripinfo_vehicle_28 emissions_vehicle_28 battery_vehicle_28" vType="human" speedFactor="1.13" vaporized="">
        <emissions CO_abs="0" CO2_abs="0" HC_abs="0" PMx_abs="0" NOx_abs="0" fuel_abs="0" electricity_abs="75.262764"/>
    </tripinfo>
    <tripinfo id="vehicle_4" depart="14.80" departLane="road3_0" departPos="4.10" departPosLat="0.00" departSpeed="1.53" departDelay="6.00" arrival="58.40" arrivalLane="-road1_0" arrivalPos="19.96" arrivalPosLat="0.00" arrivalSpeed="12.28" duration="43.60" routeLength="206.37" waitingTime="11.60" waitingCount="1" stopTime="0.00" timeLoss="26.98" rerouteNo="1" devices="tripinfo_vehicle_4 routing_vehicle_4 emissions_vehicle_4 battery_vehicle_4" vType="human" speedFactor="1.03" vaporized="">
        <emissions CO_abs="0" CO2_abs="0" HC_abs="0" PMx_abs="0" NOx_abs="0" fuel_abs="0" electricity_abs="73.315443"/>
    </tripinfo>
    <tripinfo id="vehicle_53" depart="23.20" departLane="road1_0" departPos="4.10" departPosLat="0.00" departSpeed="2.81" departDelay="10.40" arrival="59.20" arrivalLane="-road2_0" arrivalPos="19.96" arrivalPosLat="0.00" arrivalSpeed="12.24" duration="36.00" routeLength="289.97" waitingTime="0.00" waitingCount="0" stopTime="0.00" timeLoss="13.82" rerouteNo="1" devices="tripinfo_vehicle_53 routing_vehicle_53 emissions_vehicle_53 battery_vehicle_53" vType="human" speedFactor="1.10" vaporized="">
        <emissions CO_abs="0" CO2_abs="0" HC_abs="0" PMx_abs="0" NOx_abs="0" fuel_abs="0" electricity_abs="90.123378"/>
    </tripinfo>
    <tripinfo id="vehicle_57" depart="16.80" departLane="road0_0" departPos="4.10" departPosLat="0.00" departSpeed="2.82" departDelay="7.60" arrival="62.00" arrivalLane="-road1_0" arrivalPos="19.96" arrivalPosLat="0.00" arrivalSpeed="13.01" duration="45.20" routeLength="289.97" waitingTime="12.00" waitingCount="1" stopTime="0.00" timeLoss="23.02" rerouteNo="0" devices="tripinfo_vehicle_57 emissions_vehicle_57 battery_vehicle_57" vType="human" speedFactor="1.14" vaporized="">
        <emissions CO_abs="0" CO2_abs="0" HC_abs="0" PMx_abs="0" NOx_abs="0" fuel_abs="0" electricity_abs="105.461185"/>
    </tripinfo>
    <tripinfo id="vehicle_10" depart="29.20" departLane="road2_0" departPos="4.10" departPosLat="0.00" departSpeed="1.28" departDelay="22.80" arrival="63.20" arrivalLane="-road3_0" arrivalPos="19.96" arrivalPosLat="0.00" arrivalSpeed="11.31" duration="34.00" routeLength="289.97" waitingTime="0.40" waitingCount="1" stopTime="0.00" timeLoss="11.88" rerouteNo="1" devices="tripinfo_vehicle_10 routing_vehicle_10 emissions_vehicle_10 battery_vehicle_10" vType="human" speedFactor="1.09" vaporized="">
        <emissions CO_abs="0" CO2_abs="0" HC_abs="0" PMx_abs="0" NOx_abs="0" fuel_abs="0" electricity_abs="94.546802"/>
    </tripinfo>
    <tripinfo id="vehicle_13" depart="36.40" departLane="road0_0" departPos="4.10" departPosLat="0.00" departSpeed="0.95" departDelay="23.60" arrival="63.20" arrivalLane="-road2_0" arrivalPos="19.96" arrivalPosLat="0.00" arrivalSpeed="12.58" duration="26.80" routeLength="206.37" waitingTime="0.00" waitingCount="0" stopTime="0.00" timeLoss="10.55" rerouteNo="0" devices="tripinfo_vehicle_13 emissions_vehicle_13 battery_vehicle_13" vType="human" speedFactor="1.12" vaporized="">
        <emissions CO_abs="0" CO2_abs="0" HC_abs="0" PMx_abs="0" NOx_abs="0" fuel_abs="0" electricity_abs="78.709312"/>
    </tripinfo>
    <tripinfo id="vehicle_58" depart="49.20" departLane="road1_0" departPos="4.10" departPosLat="0.00" departSpeed="0.05" departDelay="26.40" arrival="66.00" arrivalLane="-road0_0" arrivalPos="19.96" arrivalPosLat="0.00" arrivalSpeed="12.98" duration="16.80" routeLength="122.77" waitingTime="0.00" waitingCount="0" stopTime="0.00" timeLoss="6.37" rerouteNo="1" devices="tripinfo_vehicle_58 routing_vehicle_58 emissions_vehicle_58 battery_vehicle_58" vType="human" speedFactor="1.02" vaporized="">
        <emissions CO_abs="0" CO2_abs="0" HC_abs="0" PMx_abs="0" NOx_abs="0" fuel_abs="0" electricity_abs="66.063632"/>
    </tripinfo>
    <tripinfo id="vehicle_40" depart="36.40" departLane="road3_0" departPos="4.10" departPosLat="0.00" departSpeed="2.00" departDelay="18.80" arrival="66.40" arrivalLane="-road2_0" arrivalPos="19.96" arrivalPosLat="0.00" arrivalSpeed="11.04" duration="30.00" routeLength="122.77" waitingTime="10.40" waitingCount="1" stopTime="0.00" timeLoss="19.79" rerouteNo="1" devices="tripinfo_vehicle_40 routing_vehicle_40 emissions_vehicle_40 battery_vehicle_40" vType="human" speedFactor="1.03" vaporized="">
        <emissions CO_abs="0" CO2_abs="0" HC_abs="0" PMx_abs="0" NOx_abs="0" fuel_abs="0" electricity_abs="52.555598"/>
    </tripinfo>
    <tripinfo id="vehicle_64" depart="30.00" departLane="road1_0" departPos="4.10" departPosLat="0.00" departSpeed="1.73" departDelay="9.60" arrival="68.40" arrivalLane="-road3_0" arrivalPos="19.96" arrivalPosLat="0.00" arrivalSpeed="12.51" duration="38.40" routeLength="206.37" waitingTime="8.80" waitingCount="1" stopTime="0.00" timeLoss="20.85" rerouteNo="1" devices="tripinfo_vehicle_64 routing_vehicle_64 emissions_vehicle_64 battery_vehicle_64" vType="human" speedFactor="0.94" vaporized="">
        <emissions CO_abs="0" CO2_abs="0" HC_abs="0" PMx_abs="0" NOx_abs="0" fuel_abs="0" electricity_abs="78.050670"/>
    </tripinfo>
    <tripinfo id="vehicle_21" depart="38.80" departLane="road3_0" departPos="4.10" departPosLat="0.00" departSpeed="2.25" departDelay="19.60" arrival="68.80" arrivalLane="-road2_0" arrivalPos="19.96" arrivalPosLat="0.00" arrivalSpeed="11.70" duration="30.00" routeLength="122.77" waitingTime="9.20" waitingCount="1" stopTime="0.00" timeLoss="19.54" rerouteNo="1" devices="tripinfo_vehicle_21 routing_vehicle_21 emissions_vehicle_21 battery_vehicle_21" vType="human" speedFactor="1.01" vaporized="">
        <emissions CO_abs="0" CO2_abs="0" HC_abs="0" PMx_abs="0" NOx_abs="0" fuel_abs="0" electricity_abs="55.170731"/>
    </tripinfo>
    <tripinfo id="vehicle_11" depart="19.20" departLane="road0_0" departPos="4.10" departPosLat="0.00" departSpeed="1.14" departDelay="9.60" arrival="69.20" arrivalLane="-road1_0" arrivalPos="19.96" arrivalPosLat="0.00" arrivalSpeed="12.10" duration="50.00" routeLength="289.97" waitingTime="11.20" waitingCount="1" stopTime="0.00" timeLoss="27.75" rerouteNo="0" devices="tripinfo_vehicle_11 emissions_vehicle_11 battery_vehicle_11" vType="human" speedFactor="1.03" vaporized="">