<?xml version="1.0" encoding="UTF-8"?>

<!-- generated on 2025-08-10 10:50:15 by Eclipse SUMO sumo Version v1_20_0+0085-e155ab8699b
<configuration xmlns:xsi="http://www.w3.org/2001/XMLSchema-instance" xsi:noNamespaceSchemaLocation="http://sumo.dlr.de/xsd/sumoConfiguration.xsd">

    <input>
        <net-file value="../networks/roundabout.net.xml"/>
        <route-files value="../networks/routes_EIDM.rou.xml"/>
    </input>

    <output>
        <output-prefix value="97-"/>
        <battery-output.precision value="4"/>
        <tripinfo-output value="../networks/output_data/output_eidm/tripinfo/tripinfo-output.xml"/>
        <collision-output value="../networks/output_data/output_eidm/collision/collision-output.xml"/>
    </output>

    <time>
        <begin value="0"/>
        <step-length value="0.4"/>
    </time>

    <processing>
        <step-method.ballistic value="true"/>
        <lateral-resolution value="3.2"/>
        <collision.action value="warn"/>
        <collision.check-junctions value="True"/>
        <collision.mingap-factor value="0"/>
        <time-to-teleport value="-1"/>
        <random-depart-offset value="5"/>
    </processing>

    <report>
        <no-warnings value="True"/>
        <no-step-log value="True"/>
    </report>

    <emissions>
        <device.emissions.probability value="1"/>
    </emissions>

    <battery>
        <device.battery.probability value="1"/>
    </battery>

    <traci_server>
        <remote-port value="40697"/>
    </traci_server>

    <gui_only>
        <quit-on-end value="True"/>
        <start value="True"/>
        <delay value="0"/>
    </gui_only>

</configuration>
-->

<tripinfos xmlns:xsi="http://www.w3.org/2001/XMLSchema-instance" xsi:noNamespaceSchemaLocation="http://sumo.dlr.de/xsd/tripinfo_file.xsd">
    <tripinfo id="vehicle_41" depart="5.60" departLane="road2_0" departPos="4.10" departPosLat="0.00" departSpeed="0.65" departDelay="0.00" arrival="22.00" arrivalLane="-road1_0" arrivalPos="19.96" arrivalPosLat="0.00" arrivalSpeed="12.19" duration="16.40" routeLength="122.77" waitingTime="0.00" waitingCount="0" stopTime="0.00" timeLoss="5.47" rerouteNo="1" devices="tripinfo_vehicle_41 routing_vehicle_41 emissions_vehicle_41 battery_vehicle_41" vType="human" speedFactor="0.96" vaporized="">
        <emissions CO_abs="0" CO2_abs="0" HC_abs="0" PMx_abs="0" NOx_abs="0" fuel_abs="0" electricity_abs="60.890868"/>
    </tripinfo>
    <tripinfo id="vehicle_79" depart="2.40" departLane="road0_0" departPos="4.10" departPosLat="0.00" departSpeed="5.40" departDelay="0.00" arrival="23.60" arrivalLane="-road2_0" arrivalPos="19.96" arrivalPosLat="0.00" arrivalSpeed="12.94" duration="21.20" routeLength="206.37" waitingTime="0.00" waitingCount="0" stopTime="0.00" timeLoss="4.86" rerouteNo="0" devices="tripinfo_vehicle_79 emissions_vehicle_79 battery_vehicle_79" vType="human" speedFactor="1.09" vaporized="">
        <emissions CO_abs="0" CO2_abs="0" HC_abs="0" PMx_abs="0" NOx_abs="0" fuel_abs="0" electricity_abs="81.932958"/>
    </tripinfo>
    <tripinfo id="rl_0" depart="0.00" departLane="road3_0" departPos="4.10" departPosLat="0.00" departSpeed="0.10" departDelay="0.00" arrival="24.00" arrivalLane="-road1_0" arrivalPos="19.96" arrivalPosLat="0.00" arrivalSpeed="7.53" duration="24.00" routeLength="206.37" waitingTime="0.00" waitingCount="0" stopTime="0.00" timeLoss="7.78" rerouteNo="1" devices="tripinfo_rl_0 routing_rl_0 emissions_rl_0 battery_rl_0 driverstaterl_0" vType="rlAnget" speedFactor="1.03" vaporized="">
        <emissions CO_abs="0" CO2_abs="0" HC_abs="0" PMx_abs="0" NOx_abs="0" fuel_abs="0" electricity_abs="58.889642"/>
    </tripinfo>
    <tripinfo id="vehicle_17" depart="2.40" departLane="road3_0" departPos="4.10" departPosLat="0.00" departSpeed="3.67" departDelay="2.00" arrival="26.40" arrivalLane="-road1_0" arrivalPos="19.96" arrivalPosLat="0.00" arrivalSpeed="12.85" duration="24.00" routeLength="206.37" waitingTime="0.00" waitingCount="0" stopTime="0.00" timeLoss="6.72" rerouteNo="1" devices="tripinfo_vehicle_17 routing_vehicle_17 emissions_vehicle_17 battery_vehicle_17" vType="human" speedFactor="0.94" vaporized="">
        <emissions CO_abs="0" CO2_abs="0" HC_abs="0" PMx_abs="0" NOx_abs="0" fuel_abs="0" electricity_abs="78.516529"/>
    </tripinfo>
    <tripinfo id="vehicle_47" depart="3.60" departLane="road1_0" departPos="4.10" departPosLat="0.00" departSpeed="0.40" departDelay="0.00" arrival="27.60" arrivalLane="-road3_0" arrivalPos="19.96" arrivalPosLat="0.00" arrivalSpeed="10.93" duration="24.00" routeLength="206.37" waitingTime="0.00" waitingCount="0" stopTime="0.00" timeLoss="5.77" rerouteNo="1" devices="tripinfo_vehicle_47 routing_vehicle_47 emissions_vehicle_47 battery_vehicle_47" vType="human" speedFactor="0.90" vaporized="">
        <emissions CO_abs="0" CO2_abs="0" HC_abs="0" PMx_abs="0" NOx_abs="0" fuel_abs="0" electricity_abs="70.540079"/>
    </tripinfo>
    <tripinfo id="vehicle_46" depart="6.00" departLane="road0_0" departPos="4.10" departPosLat="0.00" departSpeed="4.67" departDelay="0.00" arrival="28.40" arrivalLane="-road2_0" arrivalPos="19.96" arrivalPosLat="0.00" arrivalSpeed="12.89" duration="22.40" routeLength="206.37" waitingTime="0.00" waitingCount="0" stopTime="0.00" timeLoss="5.89" rerouteNo="0" devices="tripinfo_vehicle_46 emissions_vehicle_46 battery_vehicle_46" vType="human" speedFactor="1.00" vaporized="">
        <emissions CO_abs="0" CO2_abs="0" HC_abs="0" PMx_abs="0" NOx_abs="0" fuel_abs="0" electricity_abs="81.721661"/>
    </tripinfo>
    <tripinfo id="vehicle_10" depart="1.20" departLane="road0_0" departPos="4.10" departPosLat="0.00" departSpeed="9.75" departDelay="0.00" arrival="28.80" arrivalLane="-road1_0" arrivalPos="19.96" arrivalPosLat="0.00" arrivalSpeed="12.30" duration="27.60" routeLength="289.97" waitingTime="0.00" waitingCount="0" stopTime="0.00" timeLoss="5.36" rerouteNo="0" devices="tripinfo_vehicle_10 emissions_vehicle_10 battery_vehicle_10" vType="human" speedFactor="1.09" vaporized="">
        <emissions CO_abs="0" CO2_abs="0" HC_abs="0" PMx_abs="0" NOx_abs="0" fuel_abs="0" electricity_abs="80.253568"/>
    </tripinfo>
    <tripinfo id="vehicle_43" depart="2.40" departLane="road2_0" departPos="4.10" departPosLat="0.00" departSpeed="7.58" departDelay="0.00" arrival="30.80" arrivalLane="-road3_0" arrivalPos="19.96" arrivalPosLat="0.00" arrivalSpeed="12.46" duration="28.40" routeLength="289.97" waitingTime="0.00" waitingCount="0" stopTime="0.00" timeLoss="6.01" rerouteNo="1" devices="tripinfo_vehicle_43 routing_vehicle_43 emissions_vehicle_43 battery_vehicle_43" vType="human" speedFactor="1.04" vaporized="">
        <emissions CO_abs="0" CO2_abs="0" HC_abs="0" PMx_abs="0" NOx_abs="0" fuel_abs="0" electricity_abs="88.832355"/>
    </tripinfo>
    <tripinfo id="vehicle_30" depart="3.20" departLane="road2_0" departPos="4.10" departPosLat="0.00" departSpeed="5.16" departDelay="0.40" arrival="32.40" arrivalLane="-road3_0" arrivalPos="19.96" arrivalPosLat="0.00" arrivalSpeed="13.11" duration="29.20" routeLength="289.97" waitingTime="0.00" waitingCount="0" stopTime="0.00" timeLoss="7.05" rerouteNo="1" devices="tripinfo_vehicle_30 routing_vehicle_30 emissions_vehicle_30 battery_vehicle_30" vType="human" speedFactor="1.18" vaporized="">
        <emissions CO_abs="0" CO2_abs="0" HC_abs="0" PMx_abs="0" NOx_abs="0" fuel_abs="0" electricity_abs="104.139377"/>
    </tripinfo>
    <tripinfo id="vehicle_44" depart="4.00" departLane="road0_0" departPos="4.10" departPosLat="0.00" departSpeed="4.45" departDelay="0.00" arrival="32.80" arrivalLane="-road1_0" arrivalPos="19.96" arrivalPosLat="0.00" arrivalSpeed="12.71" duration="28.80" routeLength="289.97" waitingTime="0.00" waitingCount="0" stopTime="0.00" timeLoss="6.40" rerouteNo="0" devices="tripinfo_vehicle_44 emissions_vehicle_44 battery_vehicle_44" vType="human" speedFactor="1.04" vaporized="">
        <emissions CO_abs="0" CO2_abs="0" HC_abs="0" PMx_abs="0" NOx_abs="0" fuel_abs="0" electricity_abs="102.229145"/>
    </tripinfo>
    <tripinfo id="vehicle_11" depart="18.00" departLane="road1_0" departPos="4.10" departPosLat="0.00" departSpeed="1.27" departDelay="10.40" arrival="34.40" arrivalLane="-road0_0" arrivalPos="19.96" arrivalPosLat="0.00" arrivalSpeed="13.01" duration="16.40" routeLength="122.77" waitingTime="0.00" waitingCount="0" stopTime="0.00" timeLoss="6.13" rerouteNo="1" devices="tripinfo_vehicle_11 routing_vehicle_11 emissions_vehicle_11 battery_vehicle_11" vType="human" speedFactor="1.03" vaporized="">
        <emissions CO_abs="0" CO2_abs="0" HC_abs="0" PMx_abs="0" NOx_abs="0" fuel_abs="0" electricity_abs="69.995522"/>
    </tripinfo>
    <tripinfo id="vehicle_38" depart="7.60" departLane="road0_0" departPos="4.10" departPosLat="0.00" departSpeed="3.30" departDelay="1.20" arrival="36.00" arrivalLane="-road1_0" arrivalPos="19.96" arrivalPosLat="0.00" arrivalSpeed="11.85" duration="28.40" routeLength="289.97" waitingTime="0.00" waitingCount="0" stopTime="0.00" timeLoss="6.13" rerouteNo="0" devices="tripinfo_vehicle_38 emissions_vehicle_38 battery_vehicle_38" vType="human" speedFactor="1.10" vaporized="">
        <emissions CO_abs="0" CO2_abs="0" HC_abs="0" PMx_abs="0" NOx_abs="0" fuel_abs="0" electricity_abs="99.191939"/>
    </tripinfo>
    <tripinfo id="vehicle_6" depart="5.60" departLane="road1_0" departPos="4.10" departPosLat="0.00" departSpeed="4.01" departDelay="0.80" arrival="36.80" arrivalLane="-road2_0" arrivalPos="19.96" arrivalPosLat="0.00" arrivalSpeed="12.52" duration="31.20" routeLength="289.97" waitingTime="0.00" waitingCount="0" stopTime="0.00" timeLoss="8.91" rerouteNo="1" devices="tripinfo_vehicle_6 routing_vehicle_6 emissions_vehicle_6 battery_vehicle_6" vType="human" speedFactor="1.05" vaporized="">
        <emissions CO_abs="0" CO2_abs="0" HC_abs="0" PMx_abs="0" NOx_abs="0" fuel_abs="0" electricity_abs="96.877191"/>
    </tripinfo>
    <tripinfo id="vehicle_39" depart="7.20" departLane="road1_0" departPos="4.10" departPosLat="0.00" departSpeed="2.13" departDelay="2.00" arrival="37.20" arrivalLane="-road3_0" arrivalPos="19.96" arrivalPosLat="0.00" arrivalSpeed="11.69" duration="30.00" routeLength="206.37" waitingTime="2.80" waitingCount="1" stopTime="0.00" timeLoss="11.84" rerouteNo="1" devices="tripinfo_vehicle_39 routing_vehicle_39 emissions_vehicle_39 battery_vehicle_39" vType="human" speedFactor="0.90" vaporized="">
        <emissions CO_abs="0" CO2_abs="0" HC_abs="0" PMx_abs="0" NOx_abs="0" fuel_abs="0" electricity_abs="72.143947"/>
    </tripinfo>
    <tripinfo id="vehicle_64" depart="20.40" departLane="road3_0" departPos="4.10" departPosLat="0.00" departSpeed="0.16" departDelay="16.80" arrival="39.20" arrivalLane="-road2_0" arrivalPos="19.96" arrivalPosLat="0.00" arrivalSpeed="12.09" duration="18.80" routeLength="122.77" waitingTime="0.00" waitingCount="0" stopTime="0.00" timeLoss="7.85" rerouteNo="1" devices="tripinfo_vehicle_64 routing_vehicle_64 emissions_vehicle_64 battery_vehicle_64" vType="human" speedFactor="0.94" vaporized="">
        <emissions CO_abs="0" CO2_abs="0" HC_abs="0" PMx_abs="0" NOx_abs="0" fuel_abs="0" electricity_abs="57.457834"/>
    </tripinfo>
    <tripinfo id="vehicle_73" depart="12.00" departLane="road1_0" departPos="4.10" departPosLat="0.00" departSpeed="1.64" departDelay="5.20" arrival="40.00" arrivalLane="-road3_0" arrivalPos="19.96" arrivalPosLat="0.00" arrivalSpeed="13.25" duration="28.00" routeLength="206.37" waitingTime="0.40" waitingCount="1" stopTime="0.00" timeLoss="11.38" rerouteNo="1" devices="tripinfo_vehicle_73 routing_vehicle_73 emissions_vehicle_73 battery_vehicle_73" vType="human" speedFactor="1.06" vaporized="">
        <emissions CO_abs="0" CO2_abs="0" HC_abs="0" PMx_abs="0" NOx_abs="0" fuel_abs="0" electricity_abs="90.353415"/>
    </tripinfo>
    <tripinfo id="vehicle_8" depart="23.20" departLane="road1_0" departPos="4.10" departPosLat="0.00" departSpeed="2.46" departDelay="5.20" arrival="40.80" arrivalLane="-road0_0" arrivalPos="19.96" arrivalPosLat="0.00" arrivalSpeed="12.76" duration="17.60" routeLength="122.77" waitingTime="0.00" waitingCount="0" stopTime="0.00" timeLoss="6.44" rerouteNo="1" devices="tripinfo_vehicle_8 routing_vehicle_8 emissions_vehicle_8 battery_vehicle_8" vType="human" speedFactor="0.94" vaporized="">
        <emissions CO_abs="0" CO2_abs="0" HC_abs="0" PMx_abs="0" NOx_abs="0" fuel_abs="0" electricity_abs="62.785666"/>
    </tripinfo>
    <tripinfo id="vehicle_61" depart="25.60" departLane="road1_0" departPos="4.10" departPosLat="0.00" departSpeed="0.33" departDelay="6.00" arrival="42.80" arrivalLane="-road0_0" arrivalPos="19.96" arrivalPosLat="0.00" arrivalSpeed="11.84" duration="17.20" routeLength="122.77" waitingTime="0.00" waitingCount="0" stopTime="0.00" timeLoss="7.13" rerouteNo="1" devices="tripinfo_vehicle_61 routing_vehicle_61 emissions_vehicle_61 battery_vehicle_61" vType="human" speedFactor="1.12" vaporized="">
        <emissions CO_abs="0" CO2_abs="0" HC_abs="0" PMx_abs="0" NOx_abs="0" fuel_abs="0" electricity_abs="58.435963"/>
    </tripinfo>
    <tripinfo id="vehicle_12" depart="9.60" departLane="road0_0" departPos="4.10" departPosLat="0.00" departSpeed="3.27" departDelay="2.80" arrival="44.80" arrivalLane="-road3_0" arrivalPos="19.96" arrivalPosLat="0.00" arrivalSpeed="13.44" duration="35.20" routeLength="122.77" waitingTime="17.60" waitingCount="1" stopTime="0.00" timeLoss="24.71" rerouteNo="0" devices="tripinfo_vehicle_12 emissions_vehicle_12 battery_vehicle_12" vType="human" speedFactor="1.05" vaporized="">
        <emissions CO_abs="0" CO2_abs="0" HC_abs="0" PMx_abs="0" NOx_abs="0" fuel_abs="0" electricity_abs="70.420767"/>
    </tripinfo>
    <tripinfo id="vehicle_19" depart="28.00" departLane="road1_0" departPos="4.10" departPosLat="0.00" departSpeed="4.35" departDelay="3.20" arrival="44.80" arrivalLane="-road0_0" arrivalPos="19.96" arrivalPosLat="0.00" arrivalSpeed="12.25" duration="16.80" routeLength="122.77" waitingTime="0.00" waitingCount="0" stopTime="0.00" timeLoss="6.74" rerouteNo="1" devices="tripinfo_vehicle_19 routing_vehicle_19 emissions_vehicle_19 battery_vehicle_19" vType="human" speedFactor="1.16" vaporized="">
        <emissions CO_abs="0" CO2_abs="0" HC_abs="0" PMx_abs="0" NOx_abs="0" fuel_abs="0" electricity_abs="56.095512"/>
    </tripinfo>
    <tripinfo id="vehicle_28" depart="9.60" departLane="road1_0" departPos="4.10" departPosLat="0.00" departSpeed="2.01" departDelay="2.80" arrival="45.20" arrivalLane="-road2_0" arrivalPos="19.96" arrivalPosLat="0.00" arrivalSpeed="11.89" duration="35.60" routeLength="289.97" waitingTime="1.60" waitingCount="1" stopTime="0.00" timeLoss="13.49" rerouteNo="1" devices="tripinfo_vehicle_28 routing_vehicle_28 emissions_vehicle_28 battery_vehicle_28" vType="human" speedFactor="1.13" vaporized="">
        <emissions CO_abs="0" CO2_abs="0" HC_abs="0" PMx_abs="0" NOx_abs="0" fuel_abs="0" electricity_abs="97.103007"/>
    </tripinfo>
    <tripinfo id="vehicle_55" depart="4.00" departLane="road3_0" departPos="4.10" departPosLat="0.00" departSpeed="3.32" departDelay="2.40" arrival="47.20" arrivalLane="-road0_0" arrivalPos="19.96" arrivalPosLat="0.00" arrivalSpeed="11.28" duration="43.20" routeLength="289.97" waitingTime="7.60" waitingCount="1" stopTime="0.00" timeLoss="20.86" rerouteNo="1" devices="tripinfo_vehicle_55 routing_vehicle_55 emissions_vehicle_55 battery_vehicle_55" vType="human" speedFactor="1.00" vaporized="">
        <emissions CO_abs="0" CO2_abs="0" HC_abs="0" PMx_abs="0" NOx_abs="0" fuel_abs="0" electricity_abs="89.094245"/>
    </tripinfo>
    <tripinfo id="vehicle_22" depart="25.20" departLane="road3_0" departPos="4.10" departPosLat="0.00" departSpeed="2.77" departDelay="18.00" arrival="49.60" arrivalLane="-road1_0" arrivalPos="19.96" arrivalPosLat="0.00" arrivalSpeed="12.02" duration="24.40" routeLength="206.37" waitingTime="0.00" waitingCount="0" stopTime="0.00" timeLoss="7.63" rerouteNo="1" devices="tripinfo_vehicle_22 routing_vehicle_22 emissions_vehicle_22 battery_vehicle_22" vType="human" speedFactor="0.97" vaporized="">
        <emissions CO_abs="0" CO2_abs="0" HC_abs="0" PMx_abs="0" NOx_abs="0" fuel_abs="0" electricity_abs="76.238201"/>
    </tripinfo>
    <tripinfo id="vehicle_21" depart="6.00" departLane="road3_0" departPos="4.10" departPosLat="0.00" departSpeed="2.28" departDelay="4.00" arrival="50.00" arrivalLane="-road0_0" arrivalPos="19.96" arrivalPosLat="0.00" arrivalSpeed="12.58" duration="44.00" routeLength="289.97" waitingTime="6.40" waitingCount="1" stopTime="0.00" timeLoss="21.27" rerouteNo="1" devices="tripinfo_vehicle_21 routing_vehicle_21 emissions_vehicle_21 battery_vehicle_21" vType="human" speedFactor="1.01" vaporized="">
        <emissions CO_abs="0" CO2_abs="0" HC_abs="0" PMx_abs="0" NOx_abs="0" fuel_abs="0" electricity_abs="96.963884"/>
    </tripinfo>
    <tripinfo id="vehicle_40" depart="33.60" departLane="road3_0" departPos="4.10" departPosLat="0.00" departSpeed="2.88" departDelay="25.20" arrival="51.60" arrivalLane="-road2_0" arrivalPos="19.96" arrivalPosLat="0.00" arrivalSpeed="12.12" duration="18.00" routeLength="122.77" waitingTime="0.00" waitingCount="0" stopTime="0.00" timeLoss="7.70" rerouteNo="1" devices="tripinfo_vehicle_40 routing_vehicle_40 emissions_vehicle_40 battery_vehicle_40" vType="human" speedFactor="1.03" vaporized="">
        <emissions CO_abs="0" CO2_abs="0" HC_abs="0" PMx_abs="0" NOx_abs="0" fuel_abs="0" electricity_abs="56.040153"/>
    </tripinfo>
    <tripinfo id="vehicle_58" depart="8.40" departLane="road3_0" departPos="4.10" departPosLat="0.00" departSpeed="1.40" departDelay="5.20" arrival="52.00" arrivalLane="-road0_0" arrivalPos="19.96" arrivalPosLat="0.00" arrivalSpeed="11.86" duration="43.60" routeLength="289.97" waitingTime="6.00" waitingCount="1" stopTime="0.00" timeLoss="21.32" rerouteNo="1" devices="tripinfo_vehicle_58 routing_vehicle_58 emissions_vehicle_58 battery_vehicle_58" vType="human" speedFactor="1.02" vaporized="">
        <emissions CO_abs="0" CO2_abs="0" HC_abs="0" PMx_abs="0" NOx_abs="0" fuel_abs="0" electricity_abs="92.981457"/>
    </tripinfo>
    <tripinfo id="vehicle_60" depart="20.80" departLane="road1_0" departPos="4.10" departPosLat="0.00" departSpeed="1.76" departDelay="12.00" arrival="53.60" arrivalLane="-road2_0" arrivalPos="19.96" arrivalPosLat="0.00" arrivalSpeed="12.30" duration="32.80" routeLength="289.97" waitingTime="0.00" waitingCount="0" stopTime="0.00" timeLoss="10.29" rerouteNo="1" devices="tripinfo_vehicle_60 routing_vehicle_60 emissions_vehicle_60 battery_vehicle_60" vType="human" speedFactor="1.08" vaporized="">
        <emissions CO_abs="0" CO2_abs="0" HC_abs="0" PMx_abs="0" NOx_abs="0" fuel_abs="0" electricity_abs="99.315867"/>
    </tripinfo>
    <tripinfo id="vehicle_3" depart="22.80" departLane="road3_0" departPos="4.10" departPosLat="0.00" departSpeed="2.49" departDelay="15.60" arrival="54.40" arrivalLane="-road0_0" arrivalPos="19.96" arrivalPosLat="0.00" arrivalSpeed="11.99" duration="31.60" routeLength="289.97" waitingTime="0.00" waitingCount="0" stopTime="0.00" timeLoss="9.23" rerouteNo="1" devices="tripinfo_vehicle_3 routing_vehicle_3 emissions_vehicle_3 battery_vehicle_3" vType="human" speedFactor="1.08" vaporized="">
        <emissions CO_abs="0" CO2_abs="0" HC_abs="0" PMx_abs="0" NOx_abs="0" fuel_abs="0" electricity_abs="94.028617"/>
    </tripinfo>
    <tripinfo id="vehicle_32" depart="29.60" departLane="road3_0" departPos="4.10" departPosLat="0.00" departSpeed="4.14" departDelay="22.00" arrival="54.80" arrivalLane="-road1_0" arrivalPos="19.96" arrivalPosLat="0.00" arrivalSpeed="11.62" duration="25.20" routeLength="206.37" waitingTime="0.00" waitingCount="0" stopTime="0.00" timeLoss="8.93" rerouteNo="1" devices="tripinfo_vehicle_32 routing_vehicle_32 emissions_vehicle_32 battery_vehicle_32" vType="human" speedFactor="1.01" vaporized="">
        <emissions CO_abs="0" CO2_abs="0" HC_abs="0" PMx_abs="0" NOx_abs="0" fuel_abs="0" electricity_abs="69.830747"/>
    </tripinfo>
    <tripinfo id="vehicle_0" depart="11.60" departLane="road0_0" departPos="4.10" departPosLat="0.00" departSpeed="3.02" departDelay="0.40" arrival="56.00" arrivalLane="-road2_0" arrivalPos="19.96" arrivalPosLat="0.00" arrivalSpeed="12.80" duration="44.40" routeLength="206.37" waitingTime="16.40" waitingCount="1" stopTime="0.00" timeLoss="27.86" rerouteNo="0" devices="tripinfo_vehicle_0 emissions_vehicle_0 battery_vehicle_0" vType="human" speedFactor="1.06" vaporized="">
        <emissions CO_abs="0" CO2_abs="0" HC_abs="0" PMx_abs="0" NOx_abs="0" fuel_abs="0" electricity_abs="79.666292"/>
    </tripinfo>
    <tripinfo id="vehicle_59" depart="39.60" departLane="road0_0" departPos="4.10" departPosLat="0.00" departSpeed="3.36" departDelay="16.80" arrival="56.00" arrivalLane="-road3_0" arrivalPos="19.96" arrivalPosLat="0.00" arrivalSpeed="11.25" duration="16.40" routeLength="122.77" waitingTime="0.00" waitingCount="0" stopTime="0.00" timeLoss="5.79" rerouteNo="0" devices="tripinfo_vehicle_59 emissions_vehicle_59 battery_vehicle_59" vType="human" speedFactor="0.97" vaporized="">
        <emissions CO_abs="0" CO2_abs="0" HC_abs="0" PMx_abs="0" NOx_abs="0" fuel_abs="0" electricity_abs="53.539064"/>
    </tripinfo>
    <tripinfo id="vehicle_34" depart="31.20" departLane="road3_0" departPos="4.10" departPosLat="0.00" departSpeed="1.39" departDelay="23.20" arrival="57.60" arrivalLane="-road1_0" arrivalPos="19.96" arrivalPosLat="0.00" arrivalSpeed="12.12" duration="26.40" routeLength="206.37" waitingTime="0.00" waitingCount="0" stopTime="0.00" timeLoss="9.79" rerouteNo="1" devices="tripinfo_vehicle_34 routing_vehicle_34 emissions_vehicle_34 battery_vehicle_34" vType="human" speedFactor="0.99" vaporized="">
        <emissions CO_abs="0" CO2_abs="0" HC_abs="0" PMx_abs="0" NOx_abs="0" fuel_abs="0" electricity_abs="75.227833"/>
    </tripinfo>
    <tripinfo id="vehicle_4" depart="18.40" departLane="road0_0" departPos="4.10" departPosLat="0.00" departSpeed="3.13" departDelay="0.00" arrival="58.80" arrivalLane="-road2_0" arrivalPos="19.96" arrivalPosLat="0.00" arrivalSpeed="12.14" duration="40.40" routeLength="206.37" waitingTime="11.20" waitingCount="1" stopTime="0.00" timeLoss="24.01" rerouteNo="0" devices="tripinfo_vehicle_4 emissions_vehicle_4 battery_vehicle_4" vType="human" speedFactor="1.03" vaporized="">
        <emissions CO_abs="0" CO2_abs="0" HC_abs="0" PMx_abs="0" NOx_abs="0" fuel_abs="0" electricity_abs="72.280184"/>
    </tripinfo>
    <tripinfo id="vehicle_74" depart="27.20" departLane="road3_0" departPos="4.10" departPosLat="0.00" departSpeed="2.03" departDelay="20.00" arrival="59.60" arrivalLane="-road0_0" arrivalPos="19.96" arrivalPosLat="0.00" arrivalSpeed="11.74" duration="32.40" routeLength="289.97" waitingTime="0.00" waitingCount="0" stopTime="0.00" timeLoss="9.10" rerouteNo="1" devices="tripinfo_vehicle_74 routing_vehicle_74 emissions_vehicle_74 battery_vehicle_74" vType="human" speedFactor="0.96" vaporized="">
        <emissions CO_abs="0" CO2_abs="0" HC_abs="0" PMx_abs="0" NOx_abs="0" fuel_abs="0" electricity_abs="91.042593"/>
    </tripinfo>
    <tripinfo id="vehicle_56" depart="7.20" departLane="road2_0" departPos="4.10" departPosLat="0.00" departSpeed="4.27" departDelay="1.60" arrival="61.20" arrivalLane="-road1_0" arrivalPos="19.96" arrivalPosLat="0.00" arrivalSpeed="11.37" duration="54.00" routeLength="122.77" waitingTime="33.60" waitingCount="1" stopTime="0.00" timeLoss="42.60" rerouteNo="1" devices="tripinfo_vehicle_56 routing_vehicle_56 emissions_vehicle_56 battery_vehicle_56" vType="human" speedFactor="0.90" vaporized="">
        <emissions CO_abs="0" CO2_abs="0" HC_abs="0" PMx_abs="0" NOx_abs="0" fuel_abs="0" electricity_abs="50.857248"/>
    </tripinfo>
    <tripinfo id="vehicle_66" depart="34.80" departLane="road0_0" departPos="4.10" departPosLat="0.00" departSpeed="1.35" departDelay="16.40" arrival="61.20" arrivalLane="-road2_0" arrivalPos="19.96" arrivalPosLat="0.00" arrivalSpeed="11.90" duration="26.40" routeLength="206.37" waitingTime="0.00" waitingCount="0" stopTime="0.00" timeLoss="8.62" rerouteNo="0" devices="tripinfo_vehicle_66 emissions_vehicle_66 battery_vehicle_66" vType="human" speedFactor="0.91" vaporized="">
        <emissions CO_abs="0" CO2_abs="0" HC_abs="0" PMx_abs="0" NOx_abs="0" fuel_abs="0" electricity_abs="72.110204"/>
    </tripinfo>
    <tripinfo id="vehicle_20" depart="29.60" departLane="road1_0" departPos="4.10" departPosLat="0.00" departSpeed="2.48" departDelay="4.40" arrival="62.80" arrivalLane="-road0_0" arrivalPos="19.96" arrivalPosLat="0.00" arrivalSpeed="11.94" duration="33.20" routeLength="122.77" waitingTime="14.40" waitingCount="1" stopTime="0.00" timeLoss="23.00" rerouteNo="1" devices="tripinfo_vehicle_20 routing_vehicle_20 emissions_vehicle_20 battery_vehicle_20" vType="human" speedFactor="1.02" vaporized="">
        <emissions CO_abs="0" CO2_abs="0" HC_abs="0" PMx_abs="0" NOx_abs="0" fuel_abs="0" electricity_abs="59.251827"/>
    </tripinfo>
    <tripinfo id="vehicle_69" depart="37.60" departLane="road0_0" departPos="4.10" departPosLat="0.00" departSpeed="1.83" departDelay="18.40" arrival="63.60" arrivalLane="-road2_0" arrivalPos="19.96" arrivalPosLat="0.00" arrivalSpeed="12.24" duration="26.00" routeLength="206.37" waitingTime="0.00" waitingCount="0" stopTime="0.00" timeLoss="9.73" rerouteNo="0" devices="tripinfo_vehicle_69 emissions_vehicle_69 battery_vehicle_69" vType="human" speedFactor="1.02" vaporized="">
        <emissions CO_abs="0" CO2_abs="0" HC_abs="0" PMx_abs="0" NOx_abs="0" fuel_abs="0" electricity_abs="75.115584"/>
    </tripinfo>
    <tripinfo id="vehicle_29" depart="32.00" departLane="road1_0" departPos="4.10" departPosLat="0.00" departSpeed="2.97" departDelay="6.80" arrival="65.60" arrivalLane="-road0_0" arrivalPos="19.96" arrivalPosLat="0.00" arrivalSpeed="12.75" duration="33.60" routeLength="122.77" waitingTime="13.60" waitingCount="1" stopTime="0.00" timeLoss="22.40" rerouteNo="1" devices="tripinfo_vehicle_29 routing_vehicle_29 emissions_vehicle_29 battery_vehicle_29" vType="human" speedFactor="0.93" vaporized="">
        <emissions CO_abs="0" CO2_abs="0" HC_abs="0" PMx_abs="0" NOx_abs="0" fuel_abs="0" electricity_abs="61.944778"/>
    </tripinfo>
    <tripinfo id="vehicle_54" depart="41.60" departLane="road0_0" departPos="4.10" departPosLat="0.00" departSpeed="3.38" departDelay="18.00" arrival="66.80" arrivalLane="-road2_0" arrivalPos="19.96" arrivalPosLat="0.00" arrivalSpeed="10.86" duration="25.20" routeLength="206.37" waitingTime="0.00" waitingCount="0" stopTime="0.00" timeLoss="8.85" rerouteNo="0" devices="tripinfo_vehicle_54 emissions_vehicle_54 battery_vehicle_54" vType="human" speedFactor="1.00" vaporized="">
        <emissions CO_abs="0" CO2_abs="0" HC_abs="0" PMx_abs="0" NOx_abs="0" fuel_abs="0" electricity_abs="65.420204"/>
    </tripinfo>
    <tripinfo id="vehicle_68" depart="52.00" departLane="road2_0" departPos="4.10" departPosLat="0.00" departSpeed="2.34" departDelay="41.20" arrival="67.60" arrivalLane="-road1_0" arrivalPos="19.96" arrivalPosLat="0.00" arrivalSpeed="12.19" duration="15.60" routeLength="122.77" waitingTime="0.00" waitingCount="0" stopTime="0.00" timeLoss="5.33" rerouteNo="1" devices="tripinfo_vehicle_68 routing_vehicle_68 emissions_vehicle_68 battery_vehicle_68" vType="human" speedFactor="1.04" vaporized="">
        <emissions CO_abs="0" CO2_abs="0" HC_abs="0" PMx_abs="0" NOx_abs="0" fuel_abs="0" electricity_abs="61.413622"/>
    </tripinfo>
    <tripinfo id="vehicle_77" depart="43.60" departLane="road0_0" departPos="4.10" departPosLat="0.00" departSpeed="2.75" departDelay="18.00" arrival="69.20" arrivalLane="-road2_0" arrivalPos="19.96" arrivalPosLat="0.00" arrivalSpeed="12.82" duration="25.60" routeLength="206.37" waitingTime="0.00" waitingCount="0" stopTime="0.00" timeLoss="8.93" rerouteNo="0" devices="tripinfo_vehicle_77 emissions_vehicle_77 battery_vehicle_77" vType="human" speedFactor="0.98" vaporized="">
        <emissions CO_abs="0" CO2_abs="0" HC_abs="0" PMx_abs="0" NOx_abs="0" fuel_abs="0" electricity_abs="77.818111"/>
    </tripinfo>
    <tripinfo id="vehicle_62" depart="11.20" departLane="road2_0" departPos="4.10" departPosLat="0.00" departSpeed="1.32" departDelay="4.80" arrival="71.60" arrivalLane="-road0_0" arrivalPos="19.96" arrivalPosLat="0.00" arrivalSpeed="11.87" duration="60.40" routeLength="206.37" waitingTime="31.20" waitingCount="1" stopTime="0.00" timeLoss="44.12" rerouteNo="1" devices="tripinfo_vehicle_62 routing_vehicle_62 emissions_vehicle_62 battery_vehicle_62" vType="human" speedFactor="1.02" vaporized="">
        <emissions CO_abs="0" CO2_abs="0" HC_abs="0" PMx_abs="0" NOx_abs="0" fuel_abs="0" electricity_abs="79.657135"/>
    </tripinfo>
    <tripinfo id="vehicle_48" depart="35.60" departLane="road3_0" departPos="4.10" departPosLat="0.00" departSpeed="2.19" departDelay="27.20" arrival="74.40" arrivalLane="-road2_0" arrivalPos="19.96" arrivalPosLat="0.00" arrivalSpeed="10.86" duration="38.80" routeLength="122.77" waitingTime="19.60" waitingCount="1" stopTime="0.00" timeLoss="27.12" rerouteNo="1" devices="tripinfo_vehicle_48 routing_vehicle_48 emissions_vehicle_48 battery_vehicle_48" vType="human" speedFactor="0.88" vaporized="">
        <emissions CO_abs="0" CO2_abs="0" HC_abs="0" PMx_abs="0" NOx_abs="0" fuel_abs="0" electricity_abs="52.410407"/>
    </tripinfo>
    <tripinfo id="vehicle_42" depart="9.20" departLane="road2_0" departPos="4.10" departPosLat="0.00" departSpeed="3.13" departDelay="2.80" arrival="74.80" arrivalLane="-road3_0" arrivalPos="19.96" arrivalPosLat="0.00" arrivalSpeed="13.63" duration="65.60" routeLength="289.97" waitingTime="32.40" waitingCount="1" stopTime="0.00" timeLoss="43.29" rerouteNo="1" devices="tripinfo_vehicle_42 routing_vehicle_42 emissions_vehicle_42 battery_vehicle_42" vType="human" speedFactor="1.09" vaporized="">