<?xml version="1.0" encoding="UTF-8"?>

<!-- generated on 2024-06-26 09:57:30 by Eclipse SUMO sumo Version v1_20_0+0085-e155ab8699b
<configuration xmlns:xsi="http://www.w3.org/2001/XMLSchema-instance" xsi:noNamespaceSchemaLocation="http://sumo.dlr.de/xsd/sumoConfiguration.xsd">

    <input>
        <net-file value="networks/roundabout.net.xml"/>
        <route-files value="networks/routes1.rou.xml"/>
    </input>

    <output>
        <output-prefix value="15-"/>
        <battery-output.precision value="4"/>
        <tripinfo-output value="networks/output_data/output_folder/tripinfo-output.xml"/>
    </output>

    <time>
        <begin value="0"/>
        <step-length value="0.4"/>
    </time>

    <processing>
        <step-method.ballistic value="true"/>
        <lateral-resolution value="3.2"/>
        <collision.action value="warn"/>
        <collision.mingap-factor value="0"/>
        <time-to-teleport value="-1"/>
        <random-depart-offset value="5"/>
    </processing>

    <report>
        <no-warnings value="True"/>
        <no-step-log value="True"/>
    </report>

    <emissions>
        <device.emissions.probability value="1"/>
    </emissions>

    <battery>
        <device.battery.probability value="1"/>
    </battery>

    <traci_server>
        <remote-port value="47167"/>
    </traci_server>

    <gui_only>
        <quit-on-end value="True"/>
        <start value="False"/>
    </gui_only>

</configuration>
-->

<tripinfos xmlns:xsi="http://www.w3.org/2001/XMLSchema-instance" xsi:noNamespaceSchemaLocation="http://sumo.dlr.de/xsd/tripinfo_file.xsd">
    <tripinfo id="vehicle_2" depart="0.00" departLane="road0_0" departPos="4.10" departPosLat="0.00" departSpeed="10.54" departDelay="0.00" arrival="14.40" arrivalLane="-road3_0" arrivalPos="19.96" arrivalPosLat="0.00" arrivalSpeed="11.68" duration="14.40" routeLength="122.77" waitingTime="0.00" waitingCount="0" stopTime="0.00" timeLoss="3.82" rerouteNo="0" devices="tripinfo_vehicle_2 emissions_vehicle_2 battery_vehicle_2" vType="human" speedFactor="1.01" vaporized="">
        <emissions CO_abs="0" CO2_abs="0" HC_abs="0" PMx_abs="0" NOx_abs="0" fuel_abs="0" electricity_abs="32.101766"/>
    </tripinfo>
    <tripinfo id="vehicle_6" depart="2.40" departLane="road1_0" departPos="4.10" departPosLat="0.00" departSpeed="2.99" departDelay="2.40" arrival="18.00" arrivalLane="-road0_0" arrivalPos="19.96" arrivalPosLat="0.00" arrivalSpeed="13.08" duration="15.60" routeLength="122.77" waitingTime="0.00" waitingCount="0" stopTime="0.00" timeLoss="5.38" rerouteNo="1" devices="tripinfo_vehicle_6 routing_vehicle_6 emissions_vehicle_6 battery_vehicle_6" vType="human" speedFactor="1.05" vaporized="">
        <emissions CO_abs="0" CO2_abs="0" HC_abs="0" PMx_abs="0" NOx_abs="0" fuel_abs="0" electricity_abs="67.189632"/>
    </tripinfo>
    <tripinfo id="vehicle_15" depart="2.40" departLane="road2_0" departPos="4.10" departPosLat="0.00" departSpeed="0.19" departDelay="2.40" arrival="19.60" arrivalLane="-road1_0" arrivalPos="19.96" arrivalPosLat="0.00" arrivalSpeed="11.88" duration="17.20" routeLength="122.77" waitingTime="0.00" waitingCount="0" stopTime="0.00" timeLoss="6.08" rerouteNo="1" devices="tripinfo_vehicle_15 routing_vehicle_15 emissions_vehicle_15 battery_vehicle_15" vType="human" speedFactor="0.93" vaporized="">
        <emissions CO_abs="0" CO2_abs="0" HC_abs="0" PMx_abs="0" NOx_abs="0" fuel_abs="0" electricity_abs="59.895568"/>
    </tripinfo>
    <tripinfo id="vehicle_8" depart="4.40" departLane="road1_0" departPos="4.10" departPosLat="0.00" departSpeed="2.22" departDelay="4.40" arrival="21.20" arrivalLane="-road0_0" arrivalPos="19.96" arrivalPosLat="0.00" arrivalSpeed="12.76" duration="16.80" routeLength="122.77" waitingTime="0.00" waitingCount="0" stopTime="0.00" timeLoss="5.74" rerouteNo="1" devices="tripinfo_vehicle_8 routing_vehicle_8 emissions_vehicle_8 battery_vehicle_8" vType="human" speedFactor="0.94" vaporized="">
        <emissions CO_abs="0" CO2_abs="0" HC_abs="0" PMx_abs="0" NOx_abs="0" fuel_abs="0" electricity_abs="62.438723"/>
    </tripinfo>
    <tripinfo id="vehicle_4" depart="0.80" departLane="road1_0" departPos="4.10" departPosLat="0.00" departSpeed="1.73" departDelay="0.80" arrival="22.40" arrivalLane="-road3_0" arrivalPos="19.96" arrivalPosLat="0.00" arrivalSpeed="13.66" duration="21.60" routeLength="206.37" waitingTime="0.00" waitingCount="0" stopTime="0.00" timeLoss="5.00" rerouteNo="1" devices="tripinfo_vehicle_4 routing_vehicle_4 emissions_vehicle_4 battery_vehicle_4" vType="human" speedFactor="1.03" vaporized="">
        <emissions CO_abs="0" CO2_abs="0" HC_abs="0" PMx_abs="0" NOx_abs="0" fuel_abs="0" electricity_abs="95.456886"/>
    </tripinfo>
    <tripinfo id="vehicle_3" depart="0.80" departLane="road0_0" departPos="4.10" departPosLat="0.00" departSpeed="5.67" departDelay="0.80" arrival="23.60" arrivalLane="-road2_0" arrivalPos="19.96" arrivalPosLat="0.00" arrivalSpeed="12.92" duration="22.80" routeLength="206.37" waitingTime="0.00" waitingCount="0" stopTime="0.00" timeLoss="6.28" rerouteNo="0" devices="tripinfo_vehicle_3 emissions_vehicle_3 battery_vehicle_3" vType="human" speedFactor="1.08" vaporized="">
        <emissions CO_abs="0" CO2_abs="0" HC_abs="0" PMx_abs="0" NOx_abs="0" fuel_abs="0" electricity_abs="78.659390"/>
    </tripinfo>
    <tripinfo id="vehicle_7" depart="0.00" departLane="road2_0" departPos="4.10" departPosLat="0.00" departSpeed="5.10" departDelay="0.00" arrival="24.00" arrivalLane="-road0_0" arrivalPos="19.96" arrivalPosLat="0.00" arrivalSpeed="11.54" duration="24.00" routeLength="206.37" waitingTime="0.00" waitingCount="0" stopTime="0.00" timeLoss="5.74" rerouteNo="1" devices="tripinfo_vehicle_7 routing_vehicle_7 emissions_vehicle_7 battery_vehicle_7" vType="human" speedFactor="0.89" vaporized="">
        <emissions CO_abs="0" CO2_abs="0" HC_abs="0" PMx_abs="0" NOx_abs="0" fuel_abs="0" electricity_abs="64.310379"/>
    </tripinfo>
    <tripinfo id="vehicle_5" depart="0.80" departLane="road3_0" departPos="4.10" departPosLat="0.00" departSpeed="5.57" departDelay="0.80" arrival="25.60" arrivalLane="-road1_0" arrivalPos="19.96" arrivalPosLat="0.00" arrivalSpeed="11.31" duration="24.80" routeLength="206.37" waitingTime="0.00" waitingCount="0" stopTime="0.00" timeLoss="5.36" rerouteNo="1" devices="tripinfo_vehicle_5 routing_vehicle_5 emissions_vehicle_5 battery_vehicle_5" vType="human" speedFactor="0.83" vaporized="">
        <emissions CO_abs="0" CO2_abs="0" HC_abs="0" PMx_abs="0" NOx_abs="0" fuel_abs="0" electricity_abs="62.832201"/>
    </tripinfo>
    <tripinfo id="vehicle_14" depart="1.20" departLane="road2_0" departPos="4.10" departPosLat="0.00" departSpeed="5.20" departDelay="1.20" arrival="26.40" arrivalLane="-road0_0" arrivalPos="19.96" arrivalPosLat="0.00" arrivalSpeed="11.95" duration="25.20" routeLength="206.37" waitingTime="0.00" waitingCount="0" stopTime="0.00" timeLoss="8.52" rerouteNo="1" devices="tripinfo_vehicle_14 routing_vehicle_14 emissions_vehicle_14 battery_vehicle_14" vType="human" speedFactor="0.99" vaporized="">
        <emissions CO_abs="0" CO2_abs="0" HC_abs="0" PMx_abs="0" NOx_abs="0" fuel_abs="0" electricity_abs="69.931146"/>
    </tripinfo>
    <tripinfo id="vehicle_0" depart="0.00" departLane="road1_0" departPos="4.10" departPosLat="0.00" departSpeed="9.87" departDelay="0.00" arrival="26.80" arrivalLane="-road2_0" arrivalPos="19.96" arrivalPosLat="0.00" arrivalSpeed="12.18" duration="26.80" routeLength="289.97" waitingTime="0.00" waitingCount="0" stopTime="0.00" timeLoss="4.47" rerouteNo="1" devices="tripinfo_vehicle_0 routing_vehicle_0 emissions_vehicle_0 battery_vehicle_0" vType="human" speedFactor="1.06" vaporized="">
        <emissions CO_abs="0" CO2_abs="0" HC_abs="0" PMx_abs="0" NOx_abs="0" fuel_abs="0" electricity_abs="80.079653"/>
    </tripinfo>
    <tripinfo id="vehicle_9" depart="2.40" departLane="road3_0" departPos="4.10" departPosLat="0.00" departSpeed="1.77" departDelay="2.40" arrival="28.40" arrivalLane="-road1_0" arrivalPos="19.96" arrivalPosLat="0.00" arrivalSpeed="10.55" duration="26.00" routeLength="206.37" waitingTime="0.00" waitingCount="0" stopTime="0.00" timeLoss="7.07" rerouteNo="1" devices="tripinfo_vehicle_9 routing_vehicle_9 emissions_vehicle_9 battery_vehicle_9" vType="human" speedFactor="0.86" vaporized="">
        <emissions CO_abs="0" CO2_abs="0" HC_abs="0" PMx_abs="0" NOx_abs="0" fuel_abs="0" electricity_abs="65.678692"/>
    </tripinfo>
    <tripinfo id="vehicle_1" depart="0.00" departLane="road3_0" departPos="4.10" departPosLat="0.00" departSpeed="5.99" departDelay="0.00" arrival="29.20" arrivalLane="-road0_0" arrivalPos="19.96" arrivalPosLat="0.00" arrivalSpeed="11.08" duration="29.20" routeLength="289.97" waitingTime="0.00" waitingCount="0" stopTime="0.00" timeLoss="5.55" rerouteNo="1" devices="tripinfo_vehicle_1 routing_vehicle_1 emissions_vehicle_1 battery_vehicle_1" vType="human" speedFactor="0.94" vaporized="">
        <emissions CO_abs="0" CO2_abs="0" HC_abs="0" PMx_abs="0" NOx_abs="0" fuel_abs="0" electricity_abs="83.299142"/>
    </tripinfo>
    <tripinfo id="vehicle_12" depart="4.80" departLane="road3_0" departPos="4.10" departPosLat="0.00" departSpeed="2.64" departDelay="4.80" arrival="29.20" arrivalLane="-road2_0" arrivalPos="19.96" arrivalPosLat="0.00" arrivalSpeed="12.03" duration="24.40" routeLength="122.77" waitingTime="3.60" waitingCount="1" stopTime="0.00" timeLoss="13.95" rerouteNo="1" devices="tripinfo_vehicle_12 routing_vehicle_12 emissions_vehicle_12 battery_vehicle_12" vType="human" speedFactor="1.05" vaporized="">
        <emissions CO_abs="0" CO2_abs="0" HC_abs="0" PMx_abs="0" NOx_abs="0" fuel_abs="0" electricity_abs="58.141322"/>
    </tripinfo>
    <tripinfo id="vehicle_10" depart="2.00" departLane="road0_0" departPos="4.10" departPosLat="0.00" departSpeed="4.07" departDelay="2.00" arrival="32.80" arrivalLane="-road1_0" arrivalPos="19.96" arrivalPosLat="0.00" arrivalSpeed="12.37" duration="30.80" routeLength="289.97" waitingTime="0.00" waitingCount="0" stopTime="0.00" timeLoss="8.61" rerouteNo="0" devices="tripinfo_vehicle_10 emissions_vehicle_10 battery_vehicle_10" vType="human" speedFactor="1.09" vaporized="">
        <emissions CO_abs="0" CO2_abs="0" HC_abs="0" PMx_abs="0" NOx_abs="0" fuel_abs="0" electricity_abs="96.243447"/>
    </tripinfo>
</tripinfos>
