<?xml version="1.0" encoding="UTF-8"?>

<!-- generated on 2024-06-26 09:57:31 by Eclipse SUMO sumo Version v1_20_0+0085-e155ab8699b
<configuration xmlns:xsi="http://www.w3.org/2001/XMLSchema-instance" xsi:noNamespaceSchemaLocation="http://sumo.dlr.de/xsd/sumoConfiguration.xsd">

    <input>
        <net-file value="networks/roundabout.net.xml"/>
        <route-files value="networks/routes1.rou.xml"/>
    </input>

    <output>
        <output-prefix value="16-"/>
        <battery-output.precision value="4"/>
        <tripinfo-output value="networks/output_data/output_folder/tripinfo-output.xml"/>
    </output>

    <time>
        <begin value="0"/>
        <step-length value="0.4"/>
    </time>

    <processing>
        <step-method.ballistic value="true"/>
        <lateral-resolution value="3.2"/>
        <collision.action value="warn"/>
        <collision.mingap-factor value="0"/>
        <time-to-teleport value="-1"/>
        <random-depart-offset value="5"/>
    </processing>

    <report>
        <no-warnings value="True"/>
        <no-step-log value="True"/>
    </report>

    <emissions>
        <device.emissions.probability value="1"/>
    </emissions>

    <battery>
        <device.battery.probability value="1"/>
    </battery>

    <traci_server>
        <remote-port value="54807"/>
    </traci_server>

    <gui_only>
        <quit-on-end value="True"/>
        <start value="False"/>
    </gui_only>

</configuration>
-->

<tripinfos xmlns:xsi="http://www.w3.org/2001/XMLSchema-instance" xsi:noNamespaceSchemaLocation="http://sumo.dlr.de/xsd/tripinfo_file.xsd">
    <tripinfo id="vehicle_0" depart="0.00" departLane="road1_0" departPos="4.10" departPosLat="0.00" departSpeed="9.87" departDelay="0.00" arrival="14.00" arrivalLane="-road0_0" arrivalPos="19.96" arrivalPosLat="0.00" arrivalSpeed="12.88" duration="14.00" routeLength="122.77" waitingTime="0.00" waitingCount="0" stopTime="0.00" timeLoss="3.55" rerouteNo="1" devices="tripinfo_vehicle_0 routing_vehicle_0 emissions_vehicle_0 battery_vehicle_0" vType="human" speedFactor="1.06" vaporized="">
        <emissions CO_abs="0" CO2_abs="0" HC_abs="0" PMx_abs="0" NOx_abs="0" fuel_abs="0" electricity_abs="43.801540"/>
    </tripinfo>
    <tripinfo id="vehicle_6" depart="0.00" departLane="road2_0" departPos="4.10" departPosLat="0.00" departSpeed="4.12" departDelay="0.00" arrival="14.40" arrivalLane="-road1_0" arrivalPos="19.96" arrivalPosLat="0.00" arrivalSpeed="13.35" duration="14.40" routeLength="122.77" waitingTime="0.00" waitingCount="0" stopTime="0.00" timeLoss="4.12" rerouteNo="1" devices="tripinfo_vehicle_6 routing_vehicle_6 emissions_vehicle_6 battery_vehicle_6" vType="human" speedFactor="1.05" vaporized="">
        <emissions CO_abs="0" CO2_abs="0" HC_abs="0" PMx_abs="0" NOx_abs="0" fuel_abs="0" electricity_abs="67.518855"/>
    </tripinfo>
    <tripinfo id="vehicle_1" depart="0.00" departLane="road0_0" departPos="4.10" departPosLat="0.00" departSpeed="5.99" departDelay="0.00" arrival="15.60" arrivalLane="-road3_0" arrivalPos="19.96" arrivalPosLat="0.00" arrivalSpeed="10.29" duration="15.60" routeLength="122.77" waitingTime="0.00" waitingCount="0" stopTime="0.00" timeLoss="4.73" rerouteNo="0" devices="tripinfo_vehicle_1 emissions_vehicle_1 battery_vehicle_1" vType="human" speedFactor="0.94" vaporized="">
        <emissions CO_abs="0" CO2_abs="0" HC_abs="0" PMx_abs="0" NOx_abs="0" fuel_abs="0" electricity_abs="40.586267"/>
    </tripinfo>
    <tripinfo id="vehicle_15" depart="2.00" departLane="road1_0" departPos="4.10" departPosLat="0.00" departSpeed="2.36" departDelay="2.00" arrival="18.80" arrivalLane="-road0_0" arrivalPos="19.96" arrivalPosLat="0.00" arrivalSpeed="12.61" duration="16.80" routeLength="122.77" waitingTime="0.00" waitingCount="0" stopTime="0.00" timeLoss="5.52" rerouteNo="1" devices="tripinfo_vehicle_15 routing_vehicle_15 emissions_vehicle_15 battery_vehicle_15" vType="human" speedFactor="0.93" vaporized="">
        <emissions CO_abs="0" CO2_abs="0" HC_abs="0" PMx_abs="0" NOx_abs="0" fuel_abs="0" electricity_abs="62.437460"/>
    </tripinfo>
    <tripinfo id="vehicle_3" depart="2.80" departLane="road0_0" departPos="4.10" departPosLat="0.00" departSpeed="3.25" departDelay="2.80" arrival="19.60" arrivalLane="-road3_0" arrivalPos="19.96" arrivalPosLat="0.00" arrivalSpeed="13.66" duration="16.80" routeLength="122.77" waitingTime="0.00" waitingCount="0" stopTime="0.00" timeLoss="6.52" rerouteNo="0" devices="tripinfo_vehicle_3 emissions_vehicle_3 battery_vehicle_3" vType="human" speedFactor="1.08" vaporized="">
        <emissions CO_abs="0" CO2_abs="0" HC_abs="0" PMx_abs="0" NOx_abs="0" fuel_abs="0" electricity_abs="69.335233"/>
    </tripinfo>
    <tripinfo id="vehicle_12" depart="4.80" departLane="road2_0" departPos="4.10" departPosLat="0.00" departSpeed="2.49" departDelay="4.80" arrival="21.20" arrivalLane="-road1_0" arrivalPos="19.96" arrivalPosLat="0.00" arrivalSpeed="12.28" duration="16.40" routeLength="122.77" waitingTime="0.00" waitingCount="0" stopTime="0.00" timeLoss="6.18" rerouteNo="1" devices="tripinfo_vehicle_12 routing_vehicle_12 emissions_vehicle_12 battery_vehicle_12" vType="human" speedFactor="1.05" vaporized="">
        <emissions CO_abs="0" CO2_abs="0" HC_abs="0" PMx_abs="0" NOx_abs="0" fuel_abs="0" electricity_abs="63.451876"/>
    </tripinfo>
    <tripinfo id="vehicle_8" depart="1.20" departLane="road2_0" departPos="4.10" departPosLat="0.00" departSpeed="4.25" departDelay="1.20" arrival="24.40" arrivalLane="-road0_0" arrivalPos="19.96" arrivalPosLat="0.00" arrivalSpeed="11.89" duration="23.20" routeLength="206.37" waitingTime="0.00" waitingCount="0" stopTime="0.00" timeLoss="6.18" rerouteNo="1" devices="tripinfo_vehicle_8 routing_vehicle_8 emissions_vehicle_8 battery_vehicle_8" vType="human" speedFactor="0.94" vaporized="">
        <emissions CO_abs="0" CO2_abs="0" HC_abs="0" PMx_abs="0" NOx_abs="0" fuel_abs="0" electricity_abs="72.577594"/>
    </tripinfo>
    <tripinfo id="vehicle_2" depart="1.20" departLane="road0_0" departPos="4.10" departPosLat="0.00" departSpeed="0.59" departDelay="1.20" arrival="24.80" arrivalLane="-road2_0" arrivalPos="19.96" arrivalPosLat="0.00" arrivalSpeed="12.68" duration="23.60" routeLength="206.37" waitingTime="0.00" waitingCount="0" stopTime="0.00" timeLoss="7.22" rerouteNo="0" devices="tripinfo_vehicle_2 emissions_vehicle_2 battery_vehicle_2" vType="human" speedFactor="1.01" vaporized="">
        <emissions CO_abs="0" CO2_abs="0" HC_abs="0" PMx_abs="0" NOx_abs="0" fuel_abs="0" electricity_abs="84.194242"/>
    </tripinfo>
    <tripinfo id="vehicle_5" depart="0.80" departLane="road3_0" departPos="4.10" departPosLat="0.00" departSpeed="1.45" departDelay="0.80" arrival="25.60" arrivalLane="-road1_0" arrivalPos="19.96" arrivalPosLat="0.00" arrivalSpeed="10.59" duration="24.80" routeLength="206.37" waitingTime="0.00" waitingCount="0" stopTime="0.00" timeLoss="5.32" rerouteNo="1" devices="tripinfo_vehicle_5 routing_vehicle_5 emissions_vehicle_5 battery_vehicle_5" vType="human" speedFactor="0.83" vaporized="">
        <emissions CO_abs="0" CO2_abs="0" HC_abs="0" PMx_abs="0" NOx_abs="0" fuel_abs="0" electricity_abs="65.506863"/>
    </tripinfo>
    <tripinfo id="vehicle_4" depart="0.00" departLane="road3_0" departPos="4.10" departPosLat="0.00" departSpeed="7.97" departDelay="0.00" arrival="27.60" arrivalLane="-road0_0" arrivalPos="19.96" arrivalPosLat="0.00" arrivalSpeed="12.09" duration="27.60" routeLength="289.97" waitingTime="0.00" waitingCount="0" stopTime="0.00" timeLoss="5.19" rerouteNo="1" devices="tripinfo_vehicle_4 routing_vehicle_4 emissions_vehicle_4 battery_vehicle_4" vType="human" speedFactor="1.03" vaporized="">
        <emissions CO_abs="0" CO2_abs="0" HC_abs="0" PMx_abs="0" NOx_abs="0" fuel_abs="0" electricity_abs="86.760426"/>
    </tripinfo>
    <tripinfo id="vehicle_19" depart="4.40" departLane="road1_0" departPos="4.10" departPosLat="0.00" departSpeed="3.67" departDelay="4.40" arrival="28.00" arrivalLane="-road3_0" arrivalPos="19.96" arrivalPosLat="0.00" arrivalSpeed="12.50" duration="23.60" routeLength="206.37" waitingTime="0.00" waitingCount="0" stopTime="0.00" timeLoss="7.44" rerouteNo="1" devices="tripinfo_vehicle_19 routing_vehicle_19 emissions_vehicle_19 battery_vehicle_19" vType="human" speedFactor="1.16" vaporized="">
        <emissions CO_abs="0" CO2_abs="0" HC_abs="0" PMx_abs="0" NOx_abs="0" fuel_abs="0" electricity_abs="80.064256"/>
    </tripinfo>
    <tripinfo id="vehicle_10" depart="0.80" departLane="road1_0" departPos="4.10" departPosLat="0.00" departSpeed="5.55" departDelay="0.80" arrival="29.20" arrivalLane="-road2_0" arrivalPos="19.96" arrivalPosLat="0.00" arrivalSpeed="12.28" duration="28.40" routeLength="289.97" waitingTime="0.00" waitingCount="0" stopTime="0.00" timeLoss="6.29" rerouteNo="1" devices="tripinfo_vehicle_10 routing_vehicle_10 emissions_vehicle_10 battery_vehicle_10" vType="human" speedFactor="1.09" vaporized="">
        <emissions CO_abs="0" CO2_abs="0" HC_abs="0" PMx_abs="0" NOx_abs="0" fuel_abs="0" electricity_abs="96.043391"/>
    </tripinfo>
    <tripinfo id="vehicle_9" depart="4.80" departLane="road3_0" departPos="4.10" departPosLat="0.00" departSpeed="3.22" departDelay="4.80" arrival="29.60" arrivalLane="-road1_0" arrivalPos="19.96" arrivalPosLat="0.00" arrivalSpeed="11.14" duration="24.80" routeLength="206.37" waitingTime="0.00" waitingCount="0" stopTime="0.00" timeLoss="5.67" rerouteNo="1" devices="tripinfo_vehicle_9 routing_vehicle_9 emissions_vehicle_9 battery_vehicle_9" vType="human" speedFactor="0.86" vaporized="">
        <emissions CO_abs="0" CO2_abs="0" HC_abs="0" PMx_abs="0" NOx_abs="0" fuel_abs="0" electricity_abs="67.946400"/>
    </tripinfo>
    <tripinfo id="vehicle_13" depart="4.80" departLane="road0_0" departPos="4.10" departPosLat="0.00" departSpeed="2.18" departDelay="4.80" arrival="30.80" arrivalLane="-road2_0" arrivalPos="19.96" arrivalPosLat="0.00" arrivalSpeed="12.27" duration="26.00" routeLength="206.37" waitingTime="0.00" waitingCount="0" stopTime="0.00" timeLoss="10.10" rerouteNo="0" devices="tripinfo_vehicle_13 emissions_vehicle_13 battery_vehicle_13" vType="human" speedFactor="1.12" vaporized="">
        <emissions CO_abs="0" CO2_abs="0" HC_abs="0" PMx_abs="0" NOx_abs="0" fuel_abs="0" electricity_abs="78.612579"/>
    </tripinfo>
    <tripinfo id="vehicle_11" depart="2.80" departLane="road2_0" departPos="4.10" departPosLat="0.00" departSpeed="2.48" departDelay="2.80" arrival="31.60" arrivalLane="-road3_0" arrivalPos="19.96" arrivalPosLat="0.00" arrivalSpeed="12.08" duration="28.80" routeLength="289.97" waitingTime="0.00" waitingCount="0" stopTime="0.00" timeLoss="6.47" rerouteNo="1" devices="tripinfo_vehicle_11 routing_vehicle_11 emissions_vehicle_11 battery_vehicle_11" vType="human" speedFactor="1.03" vaporized="">
        <emissions CO_abs="0" CO2_abs="0" HC_abs="0" PMx_abs="0" NOx_abs="0" fuel_abs="0" electricity_abs="99.438591"/>
    </tripinfo>
    <tripinfo id="vehicle_35" depart="10.40" departLane="road1_0" departPos="4.10" departPosLat="0.00" departSpeed="1.97" departDelay="10.40" arrival="34.00" arrivalLane="-road0_0" arrivalPos="19.96" arrivalPosLat="0.00" arrivalSpeed="11.64" duration="23.60" routeLength="122.77" waitingTime="0.40" waitingCount="1" stopTime="0.00" timeLoss="13.36" rerouteNo="1" devices="tripinfo_vehicle_35 routing_vehicle_35 emissions_vehicle_35 battery_vehicle_35" vType="human" speedFactor="1.02" vaporized="">
        <emissions CO_abs="0" CO2_abs="0" HC_abs="0" PMx_abs="0" NOx_abs="0" fuel_abs="0" electricity_abs="54.801391"/>
    </tripinfo>
    <tripinfo id="vehicle_7" depart="2.80" departLane="road3_0" departPos="4.10" departPosLat="0.00" departSpeed="2.89" departDelay="2.80" arrival="37.20" arrivalLane="-road0_0" arrivalPos="19.96" arrivalPosLat="0.00" arrivalSpeed="12.27" duration="34.40" routeLength="289.97" waitingTime="0.00" waitingCount="0" stopTime="0.00" timeLoss="8.97" rerouteNo="1" devices="tripinfo_vehicle_7 routing_vehicle_7 emissions_vehicle_7 battery_vehicle_7" vType="human" speedFactor="0.89" vaporized="">
        <emissions CO_abs="0" CO2_abs="0" HC_abs="0" PMx_abs="0" NOx_abs="0" fuel_abs="0" electricity_abs="89.099496"/>
    </tripinfo>
    <tripinfo id="vehicle_20" depart="6.40" departLane="road1_0" departPos="4.10" departPosLat="0.00" departSpeed="3.51" departDelay="6.40" arrival="37.20" arrivalLane="-road3_0" arrivalPos="19.96" arrivalPosLat="0.00" arrivalSpeed="12.28" duration="30.80" routeLength="206.37" waitingTime="2.80" waitingCount="2" stopTime="0.00" timeLoss="14.40" rerouteNo="1" devices="tripinfo_vehicle_20 routing_vehicle_20 emissions_vehicle_20 battery_vehicle_20" vType="human" speedFactor="1.02" vaporized="">
        <emissions CO_abs="0" CO2_abs="0" HC_abs="0" PMx_abs="0" NOx_abs="0" fuel_abs="0" electricity_abs="75.404464"/>
    </tripinfo>
    <tripinfo id="vehicle_28" depart="8.00" departLane="road1_0" departPos="4.10" departPosLat="0.00" departSpeed="2.09" departDelay="8.00" arrival="39.60" arrivalLane="-road3_0" arrivalPos="19.96" arrivalPosLat="0.00" arrivalSpeed="11.86" duration="31.60" routeLength="206.37" waitingTime="1.60" waitingCount="1" stopTime="0.00" timeLoss="15.45" rerouteNo="1" devices="tripinfo_vehicle_28 routing_vehicle_28 emissions_vehicle_28 battery_vehicle_28" vType="human" speedFactor="1.13" vaporized="">
        <emissions CO_abs="0" CO2_abs="0" HC_abs="0" PMx_abs="0" NOx_abs="0" fuel_abs="0" electricity_abs="72.718425"/>
    </tripinfo>
    <tripinfo id="vehicle_24" depart="9.60" departLane="road0_0" departPos="4.10" departPosLat="0.00" departSpeed="0.36" departDelay="9.60" arrival="42.40" arrivalLane="-road1_0" arrivalPos="19.96" arrivalPosLat="0.00" arrivalSpeed="11.05" duration="32.80" routeLength="289.97" waitingTime="0.00" waitingCount="0" stopTime="0.00" timeLoss="5.91" rerouteNo="0" devices="tripinfo_vehicle_24 emissions_vehicle_24 battery_vehicle_24" vType="human" speedFactor="0.83" vaporized="">
        <emissions CO_abs="0" CO2_abs="0" HC_abs="0" PMx_abs="0" NOx_abs="0" fuel_abs="0" electricity_abs="83.572601"/>
    </tripinfo>
    <tripinfo id="vehicle_31" depart="13.60" departLane="road0_0" departPos="4.10" departPosLat="0.00" departSpeed="0.37" departDelay="13.60" arrival="44.00" arrivalLane="-road3_0" arrivalPos="19.96" arrivalPosLat="0.00" arrivalSpeed="12.04" duration="30.40" routeLength="122.77" waitingTime="11.20" waitingCount="2" stopTime="0.00" timeLoss="20.39" rerouteNo="0" devices="tripinfo_vehicle_31 emissions_vehicle_31 battery_vehicle_31" vType="human" speedFactor="1.15" vaporized="">
        <emissions CO_abs="0" CO2_abs="0" HC_abs="0" PMx_abs="0" NOx_abs="0" fuel_abs="0" electricity_abs="62.230093"/>
    </tripinfo>
    <tripinfo id="vehicle_16" depart="7.20" departLane="road0_0" departPos="4.10" departPosLat="0.00" departSpeed="0.09" departDelay="7.20" arrival="45.20" arrivalLane="-road1_0" arrivalPos="19.96" arrivalPosLat="-0.00" arrivalSpeed="10.86" duration="38.00" routeLength="289.97" waitingTime="0.00" waitingCount="0" stopTime="0.00" timeLoss="12.52" rerouteNo="0" devices="tripinfo_vehicle_16 emissions_vehicle_16 battery_vehicle_16" vType="human" speedFactor="0.88" vaporized="">
        <emissions CO_abs="0" CO2_abs="0" HC_abs="0" PMx_abs="0" NOx_abs="0" fuel_abs="0" electricity_abs="77.577700"/>
    </tripinfo>
    <tripinfo id="vehicle_27" depart="31.20" departLane="road3_0" departPos="4.10" departPosLat="0.00" departSpeed="1.91" departDelay="31.20" arrival="47.60" arrivalLane="-road2_0" arrivalPos="19.96" arrivalPosLat="0.00" arrivalSpeed="11.73" duration="16.40" routeLength="122.77" waitingTime="0.00" waitingCount="0" stopTime="0.00" timeLoss="5.40" rerouteNo="1" devices="tripinfo_vehicle_27 routing_vehicle_27 emissions_vehicle_27 battery_vehicle_27" vType="human" speedFactor="0.95" vaporized="">
        <emissions CO_abs="0" CO2_abs="0" HC_abs="0" PMx_abs="0" NOx_abs="0" fuel_abs="0" electricity_abs="58.307333"/>
    </tripinfo>
    <tripinfo id="vehicle_22" depart="24.00" departLane="road3_0" departPos="4.10" departPosLat="0.00" departSpeed="1.37" departDelay="24.00" arrival="49.20" arrivalLane="-road1_0" arrivalPos="19.96" arrivalPosLat="0.00" arrivalSpeed="11.52" duration="25.20" routeLength="206.37" waitingTime="0.00" waitingCount="0" stopTime="0.00" timeLoss="8.71" rerouteNo="1" devices="tripinfo_vehicle_22 routing_vehicle_22 emissions_vehicle_22 battery_vehicle_22" vType="human" speedFactor="0.97" vaporized="">
        <emissions CO_abs="0" CO2_abs="0" HC_abs="0" PMx_abs="0" NOx_abs="0" fuel_abs="0" electricity_abs="73.856297"/>
    </tripinfo>
    <tripinfo id="vehicle_14" depart="6.80" departLane="road3_0" departPos="4.10" departPosLat="0.00" departSpeed="1.89" departDelay="6.80" arrival="50.00" arrivalLane="-road0_0" arrivalPos="19.96" arrivalPosLat="0.00" arrivalSpeed="12.23" duration="43.20" routeLength="289.97" waitingTime="8.40" waitingCount="2" stopTime="0.00" timeLoss="20.51" rerouteNo="1" devices="tripinfo_vehicle_14 routing_vehicle_14 emissions_vehicle_14 battery_vehicle_14" vType="human" speedFactor="0.99" vaporized="">
        <emissions CO_abs="0" CO2_abs="0" HC_abs="0" PMx_abs="0" NOx_abs="0" fuel_abs="0" electricity_abs="97.033731"/>
    </tripinfo>
    <tripinfo id="vehicle_26" depart="11.60" departLane="road0_0" departPos="4.10" departPosLat="0.00" departSpeed="2.74" departDelay="11.60" arrival="50.80" arrivalLane="-road2_0" arrivalPos="19.96" arrivalPosLat="0.00" arrivalSpeed="12.14" duration="39.20" routeLength="206.37" waitingTime="13.20" waitingCount="1" stopTime="0.00" timeLoss="21.55" rerouteNo="0" devices="tripinfo_vehicle_26 emissions_vehicle_26 battery_vehicle_26" vType="human" speedFactor="0.92" vaporized="">
        <emissions CO_abs="0" CO2_abs="0" HC_abs="0" PMx_abs="0" NOx_abs="0" fuel_abs="0" electricity_abs="76.091424"/>
    </tripinfo>
    <tripinfo id="vehicle_21" depart="11.60" departLane="road3_0" departPos="4.10" departPosLat="0.00" departSpeed="1.61" departDelay="11.60" arrival="52.80" arrivalLane="-road0_0" arrivalPos="19.96" arrivalPosLat="0.00" arrivalSpeed="11.77" duration="41.20" routeLength="289.97" waitingTime="6.80" waitingCount="1" stopTime="0.00" timeLoss="18.79" rerouteNo="1" devices="tripinfo_vehicle_21 routing_vehicle_21 emissions_vehicle_21 battery_vehicle_21" vType="human" speedFactor="1.01" vaporized="">
        <emissions CO_abs="0" CO2_abs="0" HC_abs="0" PMx_abs="0" NOx_abs="0" fuel_abs="0" electricity_abs="96.379306"/>
    </tripinfo>
    <tripinfo id="vehicle_18" depart="9.20" departLane="road3_0" departPos="4.10" departPosLat="0.00" departSpeed="2.64" departDelay="9.20" arrival="55.60" arrivalLane="-road0_0" arrivalPos="19.96" arrivalPosLat="0.00" arrivalSpeed="12.04" duration="46.40" routeLength="289.97" waitingTime="7.60" waitingCount="1" stopTime="0.00" timeLoss="22.25" rerouteNo="1" devices="tripinfo_vehicle_18 routing_vehicle_18 emissions_vehicle_18 battery_vehicle_18" vType="human" speedFactor="0.94" vaporized="">
        <emissions CO_abs="0" CO2_abs="0" HC_abs="0" PMx_abs="0" NOx_abs="0" fuel_abs="0" electricity_abs="88.283033"/>
    </tripinfo>
    <tripinfo id="vehicle_29" depart="9.20" departLane="road2_0" departPos="4.10" departPosLat="0.00" departSpeed="1.66" departDelay="9.20" arrival="56.80" arrivalLane="-road1_0" arrivalPos="19.96" arrivalPosLat="0.00" arrivalSpeed="11.30" duration="47.60" routeLength="122.77" waitingTime="26.80" waitingCount="1" stopTime="0.00" timeLoss="36.58" rerouteNo="1" devices="tripinfo_vehicle_29 routing_vehicle_29 emissions_vehicle_29 battery_vehicle_29" vType="human" speedFactor="0.93" vaporized="">
        <emissions CO_abs="0" CO2_abs="0" HC_abs="0" PMx_abs="0" NOx_abs="0" fuel_abs="0" electricity_abs="56.085563"/>
    </tripinfo>
    <tripinfo id="vehicle_23" depart="26.40" departLane="road3_0" departPos="4.10" departPosLat="0.00" departSpeed="2.66" departDelay="26.40" arrival="58.40" arrivalLane="-road0_0" arrivalPos="19.96" arrivalPosLat="0.00" arrivalSpeed="10.97" duration="32.00" routeLength="289.97" waitingTime="0.00" waitingCount="0" stopTime="0.00" timeLoss="7.09" rerouteNo="1" devices="tripinfo_vehicle_23 routing_vehicle_23 emissions_vehicle_23 battery_vehicle_23" vType="human" speedFactor="0.89" vaporized="">
        <emissions CO_abs="0" CO2_abs="0" HC_abs="0" PMx_abs="0" NOx_abs="0" fuel_abs="0" electricity_abs="85.768835"/>
    </tripinfo>
    <tripinfo id="vehicle_25" depart="28.80" departLane="road3_0" departPos="4.10" departPosLat="0.00" departSpeed="1.92" departDelay="28.80" arrival="61.20" arrivalLane="-road0_0" arrivalPos="19.96" arrivalPosLat="0.00" arrivalSpeed="11.36" duration="32.40" routeLength="289.97" waitingTime="0.00" waitingCount="0" stopTime="0.00" timeLoss="6.79" rerouteNo="1" devices="tripinfo_vehicle_25 routing_vehicle_25 emissions_vehicle_25 battery_vehicle_25" vType="human" speedFactor="0.87" vaporized="">
        <emissions CO_abs="0" CO2_abs="0" HC_abs="0" PMx_abs="0" NOx_abs="0" fuel_abs="0" electricity_abs="85.756068"/>
    </tripinfo>
    <tripinfo id="vehicle_32" depart="16.00" departLane="road0_0" departPos="4.10" departPosLat="0.00" departSpeed="1.63" departDelay="16.00" arrival="61.20" arrivalLane="-road1_0" arrivalPos="19.96" arrivalPosLat="0.00" arrivalSpeed="11.87" duration="45.20" routeLength="289.97" waitingTime="10.80" waitingCount="1" stopTime="0.00" timeLoss="22.81" rerouteNo="0" devices="tripinfo_vehicle_32 emissions_vehicle_32 battery_vehicle_32" vType="human" speedFactor="1.01" vaporized="">
        <emissions CO_abs="0" CO2_abs="0" HC_abs="0" PMx_abs="0" NOx_abs="0" fuel_abs="0" electricity_abs="95.794190"/>
    </tripinfo>
    <tripinfo id="vehicle_30" depart="33.20" departLane="road3_0" departPos="4.10" departPosLat="0.00" departSpeed="2.40" departDelay="33.20" arrival="63.20" arrivalLane="-road1_0" arrivalPos="19.96" arrivalPosLat="0.00" arrivalSpeed="13.44" duration="30.00" routeLength="206.37" waitingTime="2.80" waitingCount="1" stopTime="0.00" timeLoss="13.66" rerouteNo="1" devices="tripinfo_vehicle_30 routing_vehicle_30 emissions_vehicle_30 battery_vehicle_30" vType="human" speedFactor="1.18" vaporized="">
        <emissions CO_abs="0" CO2_abs="0" HC_abs="0" PMx_abs="0" NOx_abs="0" fuel_abs="0" electricity_abs="86.605133"/>
    </tripinfo>
    <tripinfo id="vehicle_17" depart="6.80" departLane="road2_0" departPos="4.10" departPosLat="0.00" departSpeed="2.82" departDelay="6.80" arrival="68.80" arrivalLane="-road3_0" arrivalPos="19.96" arrivalPosLat="0.00" arrivalSpeed="11.05" duration="62.00" routeLength="289.97" waitingTime="28.00" waitingCount="1" stopTime="0.00" timeLoss="38.47" rerouteNo="1" devices="tripinfo_vehicle_17 routing_vehicle_17 emissions_vehicle_17 battery_vehicle_17" vType="human" speedFactor="0.94" vaporized="">
        <emissions CO_abs="0" CO2_abs="0" HC_abs="0" PMx_abs="0" NOx_abs="0" fuel_abs="0" electricity_abs="88.937849"/>
    </tripinfo>
    <tripinfo id="vehicle_34" depart="44.00" departLane="road2_0" departPos="4.10" departPosLat="0.00" departSpeed="1.06" departDelay="44.00" arrival="72.00" arrivalLane="-road0_0" arrivalPos="19.96" arrivalPosLat="0.00" arrivalSpeed="11.88" duration="28.00" routeLength="206.37" waitingTime="1.20" waitingCount="1" stopTime="0.00" timeLoss="11.48" rerouteNo="1" devices="tripinfo_vehicle_34 routing_vehicle_34 emissions_vehicle_34 battery_vehicle_34" vType="human" speedFactor="0.99" vaporized="">
        <emissions CO_abs="0" CO2_abs="0" HC_abs="0" PMx_abs="0" NOx_abs="0" fuel_abs="0" electricity_abs="77.701884"/>
    </tripinfo>
    <tripinfo id="vehicle_33" depart="12.00" departLane="road2_0" departPos="4.10" departPosLat="0.00" departSpeed="0.15" departDelay="12.00" arrival="72.80" arrivalLane="-road3_0" arrivalPos="19.96" arrivalPosLat="0.00" arrivalSpeed="13.13" duration="60.80" routeLength="289.97" waitingTime="25.60" waitingCount="1" stopTime="0.00" timeLoss="38.76" rerouteNo="1" devices="tripinfo_vehicle_33 routing_vehicle_33 emissions_vehicle_33 battery_vehicle_33" vType="human" speedFactor="1.17" vaporized="">
        <emissions CO_abs="0" CO2_abs="0" HC_abs="0" PMx_abs="0" NOx_abs="0" fuel_abs="0" electricity_abs="107.581722"/>
    </tripinfo>
    <tripinfo id="rl_0" depart="46.80" departLane="road2_0" departPos="4.10" departPosLat="0.00" departSpeed="3.35" departDelay="46.80" arrival="73.60" arrivalLane="-road0_0" arrivalPos="19.96" arrivalPosLat="0.00" arrivalSpeed="12.74" duration="26.80" routeLength="206.37" waitingTime="0.80" waitingCount="1" stopTime="0.00" timeLoss="10.00" rerouteNo="1" devices="tripinfo_rl_0 routing_rl_0 emissions_rl_0 battery_rl_0" vType="rlAnget" speedFactor="0.97" vaporized="">
        <emissions CO_abs="0" CO2_abs="0" HC_abs="0" PMx_abs="0" NOx_abs="0" fuel_abs="0" electricity_abs="83.251854"/>
    </tripinfo>
</tripinfos>
