<?xml version="1.0" encoding="UTF-8"?>

<!-- generated on 2024-06-26 09:57:33 by Eclipse SUMO sumo Version v1_20_0+0085-e155ab8699b
<configuration xmlns:xsi="http://www.w3.org/2001/XMLSchema-instance" xsi:noNamespaceSchemaLocation="http://sumo.dlr.de/xsd/sumoConfiguration.xsd">

    <input>
        <net-file value="networks/roundabout.net.xml"/>
        <route-files value="networks/routes1.rou.xml"/>
    </input>

    <output>
        <output-prefix value="18-"/>
        <battery-output.precision value="4"/>
        <tripinfo-output value="networks/output_data/output_folder/tripinfo-output.xml"/>
    </output>

    <time>
        <begin value="0"/>
        <step-length value="0.4"/>
    </time>

    <processing>
        <step-method.ballistic value="true"/>
        <lateral-resolution value="3.2"/>
        <collision.action value="warn"/>
        <collision.mingap-factor value="0"/>
        <time-to-teleport value="-1"/>
        <random-depart-offset value="5"/>
    </processing>

    <report>
        <no-warnings value="True"/>
        <no-step-log value="True"/>
    </report>

    <emissions>
        <device.emissions.probability value="1"/>
    </emissions>

    <battery>
        <device.battery.probability value="1"/>
    </battery>

    <traci_server>
        <remote-port value="47525"/>
    </traci_server>

    <gui_only>
        <quit-on-end value="True"/>
        <start value="False"/>
    </gui_only>

</configuration>
-->

<tripinfos xmlns:xsi="http://www.w3.org/2001/XMLSchema-instance" xsi:noNamespaceSchemaLocation="http://sumo.dlr.de/xsd/tripinfo_file.xsd">
    <tripinfo id="vehicle_0" depart="0.00" departLane="road1_0" departPos="4.10" departPosLat="0.00" departSpeed="9.87" departDelay="0.00" arrival="14.00" arrivalLane="-road0_0" arrivalPos="19.96" arrivalPosLat="0.00" arrivalSpeed="12.88" duration="14.00" routeLength="122.77" waitingTime="0.00" waitingCount="0" stopTime="0.00" timeLoss="3.65" rerouteNo="1" devices="tripinfo_vehicle_0 routing_vehicle_0 emissions_vehicle_0 battery_vehicle_0" vType="human" speedFactor="1.06" vaporized="">
        <emissions CO_abs="0" CO2_abs="0" HC_abs="0" PMx_abs="0" NOx_abs="0" fuel_abs="0" electricity_abs="43.814905"/>
    </tripinfo>
    <tripinfo id="vehicle_2" depart="0.00" departLane="road3_0" departPos="4.10" departPosLat="0.00" departSpeed="10.54" departDelay="0.00" arrival="14.00" arrivalLane="-road2_0" arrivalPos="19.96" arrivalPosLat="0.00" arrivalSpeed="12.68" duration="14.00" routeLength="122.77" waitingTime="0.00" waitingCount="0" stopTime="0.00" timeLoss="3.50" rerouteNo="1" devices="tripinfo_vehicle_2 routing_vehicle_2 emissions_vehicle_2 battery_vehicle_2" vType="human" speedFactor="1.01" vaporized="">
        <emissions CO_abs="0" CO2_abs="0" HC_abs="0" PMx_abs="0" NOx_abs="0" fuel_abs="0" electricity_abs="38.090891"/>
    </tripinfo>
    <tripinfo id="vehicle_4" depart="0.00" departLane="road2_0" departPos="4.10" departPosLat="0.00" departSpeed="10.54" departDelay="0.00" arrival="14.00" arrivalLane="-road1_0" arrivalPos="19.96" arrivalPosLat="0.00" arrivalSpeed="12.69" duration="14.00" routeLength="122.77" waitingTime="0.00" waitingCount="0" stopTime="0.00" timeLoss="3.78" rerouteNo="1" devices="tripinfo_vehicle_4 routing_vehicle_4 emissions_vehicle_4 battery_vehicle_4" vType="human" speedFactor="1.03" vaporized="">
        <emissions CO_abs="0" CO2_abs="0" HC_abs="0" PMx_abs="0" NOx_abs="0" fuel_abs="0" electricity_abs="39.236965"/>
    </tripinfo>
    <tripinfo id="vehicle_1" depart="0.00" departLane="road0_0" departPos="4.10" departPosLat="0.00" departSpeed="5.99" departDelay="0.00" arrival="16.00" arrivalLane="-road3_0" arrivalPos="19.96" arrivalPosLat="0.00" arrivalSpeed="11.19" duration="16.00" routeLength="122.77" waitingTime="0.00" waitingCount="0" stopTime="0.00" timeLoss="4.97" rerouteNo="0" devices="tripinfo_vehicle_1 emissions_vehicle_1 battery_vehicle_1" vType="human" speedFactor="0.94" vaporized="">
        <emissions CO_abs="0" CO2_abs="0" HC_abs="0" PMx_abs="0" NOx_abs="0" fuel_abs="0" electricity_abs="45.664999"/>
    </tripinfo>
    <tripinfo id="vehicle_14" depart="3.60" departLane="road2_0" departPos="4.10" departPosLat="0.00" departSpeed="1.41" departDelay="3.60" arrival="20.80" arrivalLane="-road1_0" arrivalPos="19.96" arrivalPosLat="0.00" arrivalSpeed="12.24" duration="17.20" routeLength="122.77" waitingTime="0.00" waitingCount="0" stopTime="0.00" timeLoss="6.39" rerouteNo="1" devices="tripinfo_vehicle_14 routing_vehicle_14 emissions_vehicle_14 battery_vehicle_14" vType="human" speedFactor="0.99" vaporized="">
        <emissions CO_abs="0" CO2_abs="0" HC_abs="0" PMx_abs="0" NOx_abs="0" fuel_abs="0" electricity_abs="60.715974"/>
    </tripinfo>
    <tripinfo id="vehicle_22" depart="4.40" departLane="road0_0" departPos="4.10" departPosLat="0.00" departSpeed="2.05" departDelay="4.40" arrival="22.40" arrivalLane="-road3_0" arrivalPos="19.96" arrivalPosLat="0.00" arrivalSpeed="12.13" duration="18.00" routeLength="122.77" waitingTime="0.00" waitingCount="0" stopTime="0.00" timeLoss="7.44" rerouteNo="0" devices="tripinfo_vehicle_22 emissions_vehicle_22 battery_vehicle_22" vType="human" speedFactor="0.97" vaporized="">
        <emissions CO_abs="0" CO2_abs="0" HC_abs="0" PMx_abs="0" NOx_abs="0" fuel_abs="0" electricity_abs="57.502467"/>
    </tripinfo>
    <tripinfo id="vehicle_3" depart="0.80" departLane="road3_0" departPos="4.10" departPosLat="0.00" departSpeed="5.67" departDelay="0.80" arrival="23.60" arrivalLane="-road1_0" arrivalPos="19.96" arrivalPosLat="0.00" arrivalSpeed="12.26" duration="22.80" routeLength="206.37" waitingTime="0.00" waitingCount="0" stopTime="0.00" timeLoss="6.61" rerouteNo="1" devices="tripinfo_vehicle_3 routing_vehicle_3 emissions_vehicle_3 battery_vehicle_3" vType="human" speedFactor="1.08" vaporized="">
        <emissions CO_abs="0" CO2_abs="0" HC_abs="0" PMx_abs="0" NOx_abs="0" fuel_abs="0" electricity_abs="74.773909"/>
    </tripinfo>
    <tripinfo id="vehicle_10" depart="0.80" departLane="road2_0" departPos="4.10" departPosLat="0.00" departSpeed="5.67" departDelay="0.80" arrival="23.60" arrivalLane="-road0_0" arrivalPos="19.96" arrivalPosLat="0.00" arrivalSpeed="12.47" duration="22.80" routeLength="206.37" waitingTime="0.00" waitingCount="0" stopTime="0.00" timeLoss="6.69" rerouteNo="1" devices="tripinfo_vehicle_10 routing_vehicle_10 emissions_vehicle_10 battery_vehicle_10" vType="human" speedFactor="1.09" vaporized="">
        <emissions CO_abs="0" CO2_abs="0" HC_abs="0" PMx_abs="0" NOx_abs="0" fuel_abs="0" electricity_abs="76.251934"/>
    </tripinfo>
    <tripinfo id="vehicle_7" depart="0.80" departLane="road1_0" departPos="4.10" departPosLat="0.00" departSpeed="1.75" departDelay="0.80" arrival="25.20" arrivalLane="-road3_0" arrivalPos="19.96" arrivalPosLat="0.00" arrivalSpeed="11.51" duration="24.40" routeLength="206.37" waitingTime="0.00" waitingCount="0" stopTime="0.00" timeLoss="5.85" rerouteNo="1" devices="tripinfo_vehicle_7 routing_vehicle_7 emissions_vehicle_7 battery_vehicle_7" vType="human" speedFactor="0.89" vaporized="">
        <emissions CO_abs="0" CO2_abs="0" HC_abs="0" PMx_abs="0" NOx_abs="0" fuel_abs="0" electricity_abs="71.327703"/>
    </tripinfo>
    <tripinfo id="vehicle_6" depart="1.20" departLane="road0_0" departPos="4.10" departPosLat="0.00" departSpeed="4.98" departDelay="1.20" arrival="25.60" arrivalLane="-road2_0" arrivalPos="19.96" arrivalPosLat="0.00" arrivalSpeed="12.13" duration="24.40" routeLength="206.37" waitingTime="0.00" waitingCount="0" stopTime="0.00" timeLoss="8.06" rerouteNo="0" devices="tripinfo_vehicle_6 emissions_vehicle_6 battery_vehicle_6" vType="human" speedFactor="1.05" vaporized="">
        <emissions CO_abs="0" CO2_abs="0" HC_abs="0" PMx_abs="0" NOx_abs="0" fuel_abs="0" electricity_abs="71.997878"/>
    </tripinfo>
    <tripinfo id="vehicle_12" depart="2.00" departLane="road2_0" departPos="4.10" departPosLat="0.00" departSpeed="3.63" departDelay="2.00" arrival="26.00" arrivalLane="-road0_0" arrivalPos="19.96" arrivalPosLat="0.00" arrivalSpeed="12.63" duration="24.00" routeLength="206.37" waitingTime="0.00" waitingCount="0" stopTime="0.00" timeLoss="7.73" rerouteNo="1" devices="tripinfo_vehicle_12 routing_vehicle_12 emissions_vehicle_12 battery_vehicle_12" vType="human" speedFactor="1.05" vaporized="">
        <emissions CO_abs="0" CO2_abs="0" HC_abs="0" PMx_abs="0" NOx_abs="0" fuel_abs="0" electricity_abs="79.129699"/>
    </tripinfo>
    <tripinfo id="vehicle_5" depart="2.00" departLane="road3_0" departPos="4.10" departPosLat="0.00" departSpeed="2.71" departDelay="2.00" arrival="27.60" arrivalLane="-road1_0" arrivalPos="19.96" arrivalPosLat="0.00" arrivalSpeed="10.77" duration="25.60" routeLength="206.37" waitingTime="0.00" waitingCount="0" stopTime="0.00" timeLoss="6.01" rerouteNo="1" devices="tripinfo_vehicle_5 routing_vehicle_5 emissions_vehicle_5 battery_vehicle_5" vType="human" speedFactor="0.83" vaporized="">
        <emissions CO_abs="0" CO2_abs="0" HC_abs="0" PMx_abs="0" NOx_abs="0" fuel_abs="0" electricity_abs="64.893409"/>
    </tripinfo>
    <tripinfo id="vehicle_13" depart="2.40" departLane="road0_0" departPos="4.10" departPosLat="0.00" departSpeed="2.81" departDelay="2.40" arrival="27.60" arrivalLane="-road2_0" arrivalPos="19.96" arrivalPosLat="0.00" arrivalSpeed="12.27" duration="25.20" routeLength="206.37" waitingTime="0.00" waitingCount="0" stopTime="0.00" timeLoss="9.04" rerouteNo="0" devices="tripinfo_vehicle_13 emissions_vehicle_13 battery_vehicle_13" vType="human" speedFactor="1.12" vaporized="">
        <emissions CO_abs="0" CO2_abs="0" HC_abs="0" PMx_abs="0" NOx_abs="0" fuel_abs="0" electricity_abs="78.461316"/>
    </tripinfo>
    <tripinfo id="vehicle_29" depart="6.80" departLane="road0_0" departPos="4.10" departPosLat="0.00" departSpeed="1.56" departDelay="6.80" arrival="28.00" arrivalLane="-road3_0" arrivalPos="19.96" arrivalPosLat="0.00" arrivalSpeed="12.01" duration="21.20" routeLength="122.77" waitingTime="1.20" waitingCount="1" stopTime="0.00" timeLoss="10.03" rerouteNo="0" devices="tripinfo_vehicle_29 emissions_vehicle_29 battery_vehicle_29" vType="human" speedFactor="0.93" vaporized="">
        <emissions CO_abs="0" CO2_abs="0" HC_abs="0" PMx_abs="0" NOx_abs="0" fuel_abs="0" electricity_abs="58.429996"/>
    </tripinfo>
    <tripinfo id="vehicle_19" depart="4.80" departLane="road1_0" departPos="4.10" departPosLat="0.00" departSpeed="3.18" departDelay="4.80" arrival="28.40" arrivalLane="-road0_0" arrivalPos="19.96" arrivalPosLat="0.00" arrivalSpeed="12.00" duration="23.60" routeLength="122.77" waitingTime="6.40" waitingCount="1" stopTime="0.00" timeLoss="13.71" rerouteNo="1" devices="tripinfo_vehicle_19 routing_vehicle_19 emissions_vehicle_19 battery_vehicle_19" vType="human" speedFactor="1.16" vaporized="">
        <emissions CO_abs="0" CO2_abs="0" HC_abs="0" PMx_abs="0" NOx_abs="0" fuel_abs="0" electricity_abs="60.762427"/>
    </tripinfo>
    <tripinfo id="vehicle_8" depart="4.00" departLane="road3_0" departPos="4.10" departPosLat="0.00" departSpeed="2.85" departDelay="4.00" arrival="30.40" arrivalLane="-road1_0" arrivalPos="19.96" arrivalPosLat="0.00" arrivalSpeed="12.52" duration="26.40" routeLength="206.37" waitingTime="0.00" waitingCount="0" stopTime="0.00" timeLoss="8.61" rerouteNo="1" devices="tripinfo_vehicle_8 routing_vehicle_8 emissions_vehicle_8 battery_vehicle_8" vType="human" speedFactor="0.94" vaporized="">
        <emissions CO_abs="0" CO2_abs="0" HC_abs="0" PMx_abs="0" NOx_abs="0" fuel_abs="0" electricity_abs="75.340436"/>
    </tripinfo>
    <tripinfo id="vehicle_35" depart="11.60" departLane="road0_0" departPos="4.10" departPosLat="0.00" departSpeed="2.36" departDelay="11.60" arrival="32.40" arrivalLane="-road3_0" arrivalPos="19.96" arrivalPosLat="0.00" arrivalSpeed="13.06" duration="20.80" routeLength="122.77" waitingTime="0.00" waitingCount="0" stopTime="0.00" timeLoss="10.45" rerouteNo="0" devices="tripinfo_vehicle_35 emissions_vehicle_35 battery_vehicle_35" vType="human" speedFactor="1.02" vaporized="">
        <emissions CO_abs="0" CO2_abs="0" HC_abs="0" PMx_abs="0" NOx_abs="0" fuel_abs="0" electricity_abs="63.530817"/>
    </tripinfo>
    <tripinfo id="vehicle_17" depart="2.40" departLane="road1_0" departPos="4.10" departPosLat="0.00" departSpeed="0.19" departDelay="2.40" arrival="33.20" arrivalLane="-road2_0" arrivalPos="19.96" arrivalPosLat="0.00" arrivalSpeed="11.65" duration="30.80" routeLength="289.97" waitingTime="0.00" waitingCount="0" stopTime="0.00" timeLoss="6.93" rerouteNo="1" devices="tripinfo_vehicle_17 routing_vehicle_17 emissions_vehicle_17 battery_vehicle_17" vType="human" speedFactor="0.94" vaporized="">
        <emissions CO_abs="0" CO2_abs="0" HC_abs="0" PMx_abs="0" NOx_abs="0" fuel_abs="0" electricity_abs="94.274216"/>
    </tripinfo>
    <tripinfo id="vehicle_24" depart="6.80" departLane="road1_0" departPos="4.10" departPosLat="0.00" departSpeed="3.49" departDelay="6.80" arrival="33.20" arrivalLane="-road0_0" arrivalPos="19.96" arrivalPosLat="0.00" arrivalSpeed="10.70" duration="26.40" routeLength="122.77" waitingTime="4.80" waitingCount="1" stopTime="0.00" timeLoss="13.70" rerouteNo="1" devices="tripinfo_vehicle_24 routing_vehicle_24 emissions_vehicle_24 battery_vehicle_24" vType="human" speedFactor="0.83" vaporized="">
        <emissions CO_abs="0" CO2_abs="0" HC_abs="0" PMx_abs="0" NOx_abs="0" fuel_abs="0" electricity_abs="47.216467"/>
    </tripinfo>
    <tripinfo id="vehicle_25" depart="8.80" departLane="road1_0" departPos="4.10" departPosLat="0.00" departSpeed="1.44" departDelay="8.80" arrival="35.20" arrivalLane="-road0_0" arrivalPos="19.96" arrivalPosLat="0.00" arrivalSpeed="12.08" duration="26.40" routeLength="122.77" waitingTime="3.60" waitingCount="1" stopTime="0.00" timeLoss="14.56" rerouteNo="1" devices="tripinfo_vehicle_25 routing_vehicle_25 emissions_vehicle_25 battery_vehicle_25" vType="human" speedFactor="0.87" vaporized="">
        <emissions CO_abs="0" CO2_abs="0" HC_abs="0" PMx_abs="0" NOx_abs="0" fuel_abs="0" electricity_abs="58.284514"/>
    </tripinfo>
    <tripinfo id="vehicle_30" depart="9.20" departLane="road0_0" departPos="4.10" departPosLat="0.00" departSpeed="0.18" departDelay="9.20" arrival="37.60" arrivalLane="-road2_0" arrivalPos="19.96" arrivalPosLat="0.00" arrivalSpeed="12.30" duration="28.40" routeLength="206.37" waitingTime="0.40" waitingCount="1" stopTime="0.00" timeLoss="12.22" rerouteNo="0" devices="tripinfo_vehicle_30 emissions_vehicle_30 battery_vehicle_30" vType="human" speedFactor="1.18" vaporized="">
        <emissions CO_abs="0" CO2_abs="0" HC_abs="0" PMx_abs="0" NOx_abs="0" fuel_abs="0" electricity_abs="81.059080"/>
    </tripinfo>
    <tripinfo id="rl_0" depart="23.20" departLane="road2_0" departPos="4.10" departPosLat="0.00" departSpeed="2.73" departDelay="23.20" arrival="38.80" arrivalLane="-road1_0" arrivalPos="19.96" arrivalPosLat="0.00" arrivalSpeed="13.03" duration="15.60" routeLength="122.77" waitingTime="0.00" waitingCount="0" stopTime="0.00" timeLoss="4.92" rerouteNo="1" devices="tripinfo_rl_0 routing_rl_0 emissions_rl_0 battery_rl_0" vType="rlAnget" speedFactor="0.97" vaporized="">
        <emissions CO_abs="0" CO2_abs="0" HC_abs="0" PMx_abs="0" NOx_abs="0" fuel_abs="0" electricity_abs="68.056561"/>
    </tripinfo>
</tripinfos>
