<?xml version="1.0" encoding="UTF-8"?>

<!-- generated on 2024-06-26 09:57:48 by Eclipse SUMO sumo Version v1_20_0+0085-e155ab8699b
<configuration xmlns:xsi="http://www.w3.org/2001/XMLSchema-instance" xsi:noNamespaceSchemaLocation="http://sumo.dlr.de/xsd/sumoConfiguration.xsd">

    <input>
        <net-file value="networks/roundabout.net.xml"/>
        <route-files value="networks/routes1.rou.xml"/>
    </input>

    <output>
        <output-prefix value="31-"/>
        <battery-output.precision value="4"/>
        <tripinfo-output value="networks/output_data/output_folder/tripinfo-output.xml"/>
    </output>

    <time>
        <begin value="0"/>
        <step-length value="0.4"/>
    </time>

    <processing>
        <step-method.ballistic value="true"/>
        <lateral-resolution value="3.2"/>
        <collision.action value="warn"/>
        <collision.mingap-factor value="0"/>
        <time-to-teleport value="-1"/>
        <random-depart-offset value="5"/>
    </processing>

    <report>
        <no-warnings value="True"/>
        <no-step-log value="True"/>
    </report>

    <emissions>
        <device.emissions.probability value="1"/>
    </emissions>

    <battery>
        <device.battery.probability value="1"/>
    </battery>

    <traci_server>
        <remote-port value="45957"/>
    </traci_server>

    <gui_only>
        <quit-on-end value="True"/>
        <start value="False"/>
    </gui_only>

</configuration>
-->

<tripinfos xmlns:xsi="http://www.w3.org/2001/XMLSchema-instance" xsi:noNamespaceSchemaLocation="http://sumo.dlr.de/xsd/tripinfo_file.xsd">
    <tripinfo id="vehicle_4" depart="0.00" departLane="road1_0" departPos="4.10" departPosLat="0.00" departSpeed="7.97" departDelay="0.00" arrival="14.00" arrivalLane="-road0_0" arrivalPos="19.96" arrivalPosLat="0.00" arrivalSpeed="13.03" duration="14.00" routeLength="122.77" waitingTime="0.00" waitingCount="0" stopTime="0.00" timeLoss="3.67" rerouteNo="1" devices="tripinfo_vehicle_4 routing_vehicle_4 emissions_vehicle_4 battery_vehicle_4" vType="human" speedFactor="1.03" vaporized="">
        <emissions CO_abs="0" CO2_abs="0" HC_abs="0" PMx_abs="0" NOx_abs="0" fuel_abs="0" electricity_abs="53.868684"/>
    </tripinfo>
    <tripinfo id="vehicle_1" depart="0.00" departLane="road3_0" departPos="4.10" departPosLat="0.00" departSpeed="5.99" departDelay="0.00" arrival="14.80" arrivalLane="-road2_0" arrivalPos="19.96" arrivalPosLat="0.00" arrivalSpeed="12.06" duration="14.80" routeLength="122.77" waitingTime="0.00" waitingCount="0" stopTime="0.00" timeLoss="3.63" rerouteNo="1" devices="tripinfo_vehicle_1 routing_vehicle_1 emissions_vehicle_1 battery_vehicle_1" vType="human" speedFactor="0.94" vaporized="">
        <emissions CO_abs="0" CO2_abs="0" HC_abs="0" PMx_abs="0" NOx_abs="0" fuel_abs="0" electricity_abs="53.368300"/>
    </tripinfo>
    <tripinfo id="vehicle_2" depart="0.80" departLane="road0_0" departPos="4.10" departPosLat="0.00" departSpeed="4.94" departDelay="0.80" arrival="16.00" arrivalLane="-road3_0" arrivalPos="19.96" arrivalPosLat="0.00" arrivalSpeed="11.68" duration="15.20" routeLength="122.77" waitingTime="0.00" waitingCount="0" stopTime="0.00" timeLoss="4.82" rerouteNo="0" devices="tripinfo_vehicle_2 emissions_vehicle_2 battery_vehicle_2" vType="human" speedFactor="1.01" vaporized="">
        <emissions CO_abs="0" CO2_abs="0" HC_abs="0" PMx_abs="0" NOx_abs="0" fuel_abs="0" electricity_abs="55.421989"/>
    </tripinfo>
    <tripinfo id="vehicle_10" depart="0.80" departLane="road1_0" departPos="4.10" departPosLat="0.00" departSpeed="1.96" departDelay="0.80" arrival="16.40" arrivalLane="-road0_0" arrivalPos="19.96" arrivalPosLat="0.00" arrivalSpeed="12.75" duration="15.60" routeLength="122.77" waitingTime="0.00" waitingCount="0" stopTime="0.00" timeLoss="5.37" rerouteNo="1" devices="tripinfo_vehicle_10 routing_vehicle_10 emissions_vehicle_10 battery_vehicle_10" vType="human" speedFactor="1.09" vaporized="">
        <emissions CO_abs="0" CO2_abs="0" HC_abs="0" PMx_abs="0" NOx_abs="0" fuel_abs="0" electricity_abs="66.441853"/>
    </tripinfo>
    <tripinfo id="vehicle_12" depart="1.20" departLane="road2_0" departPos="4.10" departPosLat="0.00" departSpeed="3.87" departDelay="1.20" arrival="17.20" arrivalLane="-road1_0" arrivalPos="19.96" arrivalPosLat="0.00" arrivalSpeed="13.36" duration="16.00" routeLength="122.77" waitingTime="0.00" waitingCount="0" stopTime="0.00" timeLoss="5.69" rerouteNo="1" devices="tripinfo_vehicle_12 routing_vehicle_12 emissions_vehicle_12 battery_vehicle_12" vType="human" speedFactor="1.05" vaporized="">
        <emissions CO_abs="0" CO2_abs="0" HC_abs="0" PMx_abs="0" NOx_abs="0" fuel_abs="0" electricity_abs="66.611986"/>
    </tripinfo>
    <tripinfo id="vehicle_3" depart="2.00" departLane="road0_0" departPos="4.10" departPosLat="0.00" departSpeed="2.14" departDelay="2.00" arrival="18.40" arrivalLane="-road3_0" arrivalPos="19.96" arrivalPosLat="0.00" arrivalSpeed="12.62" duration="16.40" routeLength="122.77" waitingTime="0.00" waitingCount="0" stopTime="0.00" timeLoss="6.23" rerouteNo="0" devices="tripinfo_vehicle_3 emissions_vehicle_3 battery_vehicle_3" vType="human" speedFactor="1.08" vaporized="">
        <emissions CO_abs="0" CO2_abs="0" HC_abs="0" PMx_abs="0" NOx_abs="0" fuel_abs="0" electricity_abs="63.931375"/>
    </tripinfo>
    <tripinfo id="vehicle_16" depart="4.80" departLane="road1_0" departPos="4.10" departPosLat="0.00" departSpeed="2.65" departDelay="4.80" arrival="22.40" arrivalLane="-road0_0" arrivalPos="19.96" arrivalPosLat="0.00" arrivalSpeed="11.53" duration="17.60" routeLength="122.77" waitingTime="0.00" waitingCount="0" stopTime="0.00" timeLoss="5.78" rerouteNo="1" devices="tripinfo_vehicle_16 routing_vehicle_16 emissions_vehicle_16 battery_vehicle_16" vType="human" speedFactor="0.88" vaporized="">
        <emissions CO_abs="0" CO2_abs="0" HC_abs="0" PMx_abs="0" NOx_abs="0" fuel_abs="0" electricity_abs="52.432002"/>
    </tripinfo>
    <tripinfo id="vehicle_19" depart="7.20" departLane="road3_0" departPos="4.10" departPosLat="0.00" departSpeed="0.10" departDelay="7.20" arrival="23.20" arrivalLane="-road2_0" arrivalPos="19.96" arrivalPosLat="0.00" arrivalSpeed="13.48" duration="16.00" routeLength="122.77" waitingTime="0.00" waitingCount="0" stopTime="0.00" timeLoss="5.58" rerouteNo="1" devices="tripinfo_vehicle_19 routing_vehicle_19 emissions_vehicle_19 battery_vehicle_19" vType="human" speedFactor="1.16" vaporized="">
        <emissions CO_abs="0" CO2_abs="0" HC_abs="0" PMx_abs="0" NOx_abs="0" fuel_abs="0" electricity_abs="73.705526"/>
    </tripinfo>
    <tripinfo id="vehicle_8" depart="8.40" departLane="road0_0" departPos="4.10" departPosLat="0.00" departSpeed="2.84" departDelay="8.40" arrival="24.80" arrivalLane="-road3_0" arrivalPos="19.96" arrivalPosLat="0.00" arrivalSpeed="12.05" duration="16.40" routeLength="122.77" waitingTime="0.00" waitingCount="0" stopTime="0.00" timeLoss="5.07" rerouteNo="0" devices="tripinfo_vehicle_8 emissions_vehicle_8 battery_vehicle_8" vType="human" speedFactor="0.94" vaporized="">
        <emissions CO_abs="0" CO2_abs="0" HC_abs="0" PMx_abs="0" NOx_abs="0" fuel_abs="0" electricity_abs="59.464149"/>
    </tripinfo>
    <tripinfo id="vehicle_5" depart="0.80" departLane="road3_0" departPos="4.10" departPosLat="0.00" departSpeed="5.57" departDelay="0.80" arrival="26.40" arrivalLane="-road1_0" arrivalPos="19.96" arrivalPosLat="0.00" arrivalSpeed="11.31" duration="25.60" routeLength="206.37" waitingTime="0.00" waitingCount="0" stopTime="0.00" timeLoss="5.88" rerouteNo="1" devices="tripinfo_vehicle_5 routing_vehicle_5 emissions_vehicle_5 battery_vehicle_5" vType="human" speedFactor="0.83" vaporized="">
        <emissions CO_abs="0" CO2_abs="0" HC_abs="0" PMx_abs="0" NOx_abs="0" fuel_abs="0" electricity_abs="62.180322"/>
    </tripinfo>
    <tripinfo id="vehicle_13" depart="2.80" departLane="road2_0" departPos="4.10" departPosLat="0.00" departSpeed="1.96" departDelay="2.80" arrival="26.40" arrivalLane="-road0_0" arrivalPos="19.96" arrivalPosLat="0.00" arrivalSpeed="12.09" duration="23.60" routeLength="206.37" waitingTime="0.00" waitingCount="0" stopTime="0.00" timeLoss="7.37" rerouteNo="1" devices="tripinfo_vehicle_13 routing_vehicle_13 emissions_vehicle_13 battery_vehicle_13" vType="human" speedFactor="1.12" vaporized="">
        <emissions CO_abs="0" CO2_abs="0" HC_abs="0" PMx_abs="0" NOx_abs="0" fuel_abs="0" electricity_abs="80.934635"/>
    </tripinfo>
    <tripinfo id="vehicle_21" depart="9.60" departLane="road3_0" departPos="4.10" departPosLat="0.00" departSpeed="0.68" departDelay="9.60" arrival="26.40" arrivalLane="-road2_0" arrivalPos="19.96" arrivalPosLat="0.00" arrivalSpeed="12.52" duration="16.80" routeLength="122.77" waitingTime="0.00" waitingCount="0" stopTime="0.00" timeLoss="6.45" rerouteNo="1" devices="tripinfo_vehicle_21 routing_vehicle_21 emissions_vehicle_21 battery_vehicle_21" vType="human" speedFactor="1.01" vaporized="">
        <emissions CO_abs="0" CO2_abs="0" HC_abs="0" PMx_abs="0" NOx_abs="0" fuel_abs="0" electricity_abs="65.042232"/>
    </tripinfo>
    <tripinfo id="vehicle_14" depart="2.40" departLane="road3_0" departPos="4.10" departPosLat="0.00" departSpeed="1.77" departDelay="2.40" arrival="28.40" arrivalLane="-road1_0" arrivalPos="19.96" arrivalPosLat="0.00" arrivalSpeed="11.67" duration="26.00" routeLength="206.37" waitingTime="0.00" waitingCount="0" stopTime="0.00" timeLoss="9.30" rerouteNo="1" devices="tripinfo_vehicle_14 routing_vehicle_14 emissions_vehicle_14 battery_vehicle_14" vType="human" speedFactor="0.99" vaporized="">
        <emissions CO_abs="0" CO2_abs="0" HC_abs="0" PMx_abs="0" NOx_abs="0" fuel_abs="0" electricity_abs="73.020501"/>
    </tripinfo>
    <tripinfo id="vehicle_0" depart="0.00" departLane="road0_0" departPos="4.10" departPosLat="0.00" departSpeed="9.87" departDelay="0.00" arrival="30.00" arrivalLane="-road1_0" arrivalPos="19.96" arrivalPosLat="0.00" arrivalSpeed="12.93" duration="30.00" routeLength="289.97" waitingTime="0.00" waitingCount="0" stopTime="0.00" timeLoss="7.66" rerouteNo="0" devices="tripinfo_vehicle_0 emissions_vehicle_0 battery_vehicle_0" vType="human" speedFactor="1.06" vaporized="">
        <emissions CO_abs="0" CO2_abs="0" HC_abs="0" PMx_abs="0" NOx_abs="0" fuel_abs="0" electricity_abs="82.844480"/>
    </tripinfo>
    <tripinfo id="vehicle_9" depart="0.00" departLane="road2_0" departPos="4.10" departPosLat="0.00" departSpeed="3.55" departDelay="0.00" arrival="31.20" arrivalLane="-road3_0" arrivalPos="19.96" arrivalPosLat="0.00" arrivalSpeed="11.95" duration="31.20" routeLength="289.97" waitingTime="0.00" waitingCount="0" stopTime="0.00" timeLoss="5.20" rerouteNo="1" devices="tripinfo_vehicle_9 routing_vehicle_9 emissions_vehicle_9 battery_vehicle_9" vType="human" speedFactor="0.86" vaporized="">
        <emissions CO_abs="0" CO2_abs="0" HC_abs="0" PMx_abs="0" NOx_abs="0" fuel_abs="0" electricity_abs="87.770656"/>
    </tripinfo>
    <tripinfo id="vehicle_11" depart="2.80" departLane="road1_0" departPos="4.10" departPosLat="0.00" departSpeed="2.75" departDelay="2.80" arrival="32.00" arrivalLane="-road2_0" arrivalPos="19.96" arrivalPosLat="0.00" arrivalSpeed="12.77" duration="29.20" routeLength="289.97" waitingTime="0.00" waitingCount="0" stopTime="0.00" timeLoss="6.79" rerouteNo="1" devices="tripinfo_vehicle_11 routing_vehicle_11 emissions_vehicle_11 battery_vehicle_11" vType="human" speedFactor="1.03" vaporized="">
        <emissions CO_abs="0" CO2_abs="0" HC_abs="0" PMx_abs="0" NOx_abs="0" fuel_abs="0" electricity_abs="103.476899"/>
    </tripinfo>
    <tripinfo id="vehicle_28" depart="10.80" departLane="road1_0" departPos="4.10" departPosLat="0.00" departSpeed="1.85" departDelay="10.80" arrival="32.00" arrivalLane="-road0_0" arrivalPos="19.96" arrivalPosLat="0.00" arrivalSpeed="11.95" duration="21.20" routeLength="122.77" waitingTime="0.40" waitingCount="1" stopTime="0.00" timeLoss="11.14" rerouteNo="1" devices="tripinfo_vehicle_28 routing_vehicle_28 emissions_vehicle_28 battery_vehicle_28" vType="human" speedFactor="1.13" vaporized="">
        <emissions CO_abs="0" CO2_abs="0" HC_abs="0" PMx_abs="0" NOx_abs="0" fuel_abs="0" electricity_abs="61.725118"/>
    </tripinfo>
    <tripinfo id="vehicle_17" depart="4.80" departLane="road3_0" departPos="4.10" departPosLat="0.00" departSpeed="2.64" departDelay="4.80" arrival="33.60" arrivalLane="-road1_0" arrivalPos="19.96" arrivalPosLat="0.00" arrivalSpeed="12.55" duration="28.80" routeLength="206.37" waitingTime="0.00" waitingCount="0" stopTime="0.00" timeLoss="11.43" rerouteNo="1" devices="tripinfo_vehicle_17 routing_vehicle_17 emissions_vehicle_17 battery_vehicle_17" vType="human" speedFactor="0.94" vaporized="">
        <emissions CO_abs="0" CO2_abs="0" HC_abs="0" PMx_abs="0" NOx_abs="0" fuel_abs="0" electricity_abs="73.926664"/>
    </tripinfo>
    <tripinfo id="vehicle_6" depart="4.40" departLane="road0_0" departPos="4.10" departPosLat="0.00" departSpeed="3.20" departDelay="4.40" arrival="35.60" arrivalLane="-road1_0" arrivalPos="19.96" arrivalPosLat="0.00" arrivalSpeed="12.32" duration="31.20" routeLength="289.97" waitingTime="0.00" waitingCount="0" stopTime="0.00" timeLoss="8.80" rerouteNo="0" devices="tripinfo_vehicle_6 emissions_vehicle_6 battery_vehicle_6" vType="human" speedFactor="1.05" vaporized="">
        <emissions CO_abs="0" CO2_abs="0" HC_abs="0" PMx_abs="0" NOx_abs="0" fuel_abs="0" electricity_abs="98.362801"/>
    </tripinfo>
    <tripinfo id="vehicle_15" depart="5.20" departLane="road2_0" departPos="4.10" departPosLat="0.00" departSpeed="1.68" departDelay="5.20" arrival="36.40" arrivalLane="-road3_0" arrivalPos="19.96" arrivalPosLat="0.00" arrivalSpeed="12.34" duration="31.20" routeLength="289.97" waitingTime="0.00" waitingCount="0" stopTime="0.00" timeLoss="7.04" rerouteNo="1" devices="tripinfo_vehicle_15 routing_vehicle_15 emissions_vehicle_15 battery_vehicle_15" vType="human" speedFactor="0.93" vaporized="">
        <emissions CO_abs="0" CO2_abs="0" HC_abs="0" PMx_abs="0" NOx_abs="0" fuel_abs="0" electricity_abs="97.365698"/>
    </tripinfo>
    <tripinfo id="vehicle_7" depart="6.40" departLane="road0_0" departPos="4.10" departPosLat="0.00" departSpeed="2.58" departDelay="6.40" arrival="38.40" arrivalLane="-road1_0" arrivalPos="19.96" arrivalPosLat="0.00" arrivalSpeed="11.33" duration="32.00" routeLength="289.97" waitingTime="0.00" waitingCount="0" stopTime="0.00" timeLoss="6.78" rerouteNo="0" devices="tripinfo_vehicle_7 emissions_vehicle_7 battery_vehicle_7" vType="human" speedFactor="0.89" vaporized="">
        <emissions CO_abs="0" CO2_abs="0" HC_abs="0" PMx_abs="0" NOx_abs="0" fuel_abs="0" electricity_abs="85.720943"/>
    </tripinfo>
    <tripinfo id="vehicle_34" depart="22.80" departLane="road1_0" departPos="4.10" departPosLat="0.00" departSpeed="2.62" departDelay="22.80" arrival="38.40" arrivalLane="-road0_0" arrivalPos="19.96" arrivalPosLat="0.00" arrivalSpeed="12.55" duration="15.60" routeLength="122.77" waitingTime="0.00" waitingCount="0" stopTime="0.00" timeLoss="5.01" rerouteNo="1" devices="tripinfo_vehicle_34 routing_vehicle_34 emissions_vehicle_34 battery_vehicle_34" vType="human" speedFactor="0.99" vaporized="">
        <emissions CO_abs="0" CO2_abs="0" HC_abs="0" PMx_abs="0" NOx_abs="0" fuel_abs="0" electricity_abs="64.552214"/>
    </tripinfo>
    <tripinfo id="vehicle_20" depart="6.80" departLane="road1_0" departPos="4.10" departPosLat="0.00" departSpeed="2.96" departDelay="6.80" arrival="40.80" arrivalLane="-road2_0" arrivalPos="19.96" arrivalPosLat="0.00" arrivalSpeed="12.04" duration="34.00" routeLength="289.97" waitingTime="0.00" waitingCount="0" stopTime="0.00" timeLoss="11.68" rerouteNo="1" devices="tripinfo_vehicle_20 routing_vehicle_20 emissions_vehicle_20 battery_vehicle_20" vType="human" speedFactor="1.02" vaporized="">
        <emissions CO_abs="0" CO2_abs="0" HC_abs="0" PMx_abs="0" NOx_abs="0" fuel_abs="0" electricity_abs="91.613687"/>
    </tripinfo>
    <tripinfo id="vehicle_18" depart="10.40" departLane="road0_0" departPos="4.10" departPosLat="0.00" departSpeed="2.87" departDelay="10.40" arrival="43.20" arrivalLane="-road1_0" arrivalPos="19.96" arrivalPosLat="0.00" arrivalSpeed="11.81" duration="32.80" routeLength="289.97" waitingTime="0.00" waitingCount="0" stopTime="0.00" timeLoss="8.94" rerouteNo="0" devices="tripinfo_vehicle_18 emissions_vehicle_18 battery_vehicle_18" vType="human" speedFactor="0.94" vaporized="">
        <emissions CO_abs="0" CO2_abs="0" HC_abs="0" PMx_abs="0" NOx_abs="0" fuel_abs="0" electricity_abs="90.625840"/>
    </tripinfo>
    <tripinfo id="vehicle_27" depart="8.80" departLane="road1_0" departPos="4.10" departPosLat="0.00" departSpeed="2.73" departDelay="8.80" arrival="44.80" arrivalLane="-road2_0" arrivalPos="19.96" arrivalPosLat="0.00" arrivalSpeed="12.26" duration="36.00" routeLength="289.97" waitingTime="2.00" waitingCount="1" stopTime="0.00" timeLoss="12.23" rerouteNo="1" devices="tripinfo_vehicle_27 routing_vehicle_27 emissions_vehicle_27 battery_vehicle_27" vType="human" speedFactor="0.95" vaporized="">
        <emissions CO_abs="0" CO2_abs="0" HC_abs="0" PMx_abs="0" NOx_abs="0" fuel_abs="0" electricity_abs="96.278980"/>
    </tripinfo>
    <tripinfo id="vehicle_30" depart="13.60" departLane="road1_0" departPos="4.10" departPosLat="0.00" departSpeed="1.40" departDelay="13.60" arrival="47.20" arrivalLane="-road2_0" arrivalPos="19.96" arrivalPosLat="0.00" arrivalSpeed="11.98" duration="33.60" routeLength="289.97" waitingTime="0.00" waitingCount="0" stopTime="0.00" timeLoss="11.68" rerouteNo="1" devices="tripinfo_vehicle_30 routing_vehicle_30 emissions_vehicle_30 battery_vehicle_30" vType="human" speedFactor="1.18" vaporized="">
        <emissions CO_abs="0" CO2_abs="0" HC_abs="0" PMx_abs="0" NOx_abs="0" fuel_abs="0" electricity_abs="101.905374"/>
    </tripinfo>
    <tripinfo id="vehicle_35" depart="14.80" departLane="road0_0" departPos="4.10" departPosLat="0.00" departSpeed="0.23" departDelay="14.80" arrival="48.00" arrivalLane="-road3_0" arrivalPos="19.96" arrivalPosLat="0.00" arrivalSpeed="11.82" duration="33.20" routeLength="122.77" waitingTime="14.00" waitingCount="1" stopTime="0.00" timeLoss="22.87" rerouteNo="0" devices="tripinfo_vehicle_35 emissions_vehicle_35 battery_vehicle_35" vType="human" speedFactor="1.02" vaporized="">
        <emissions CO_abs="0" CO2_abs="0" HC_abs="0" PMx_abs="0" NOx_abs="0" fuel_abs="0" electricity_abs="61.456328"/>
    </tripinfo>
    <tripinfo id="vehicle_31" depart="19.60" departLane="road1_0" departPos="4.10" departPosLat="0.00" departSpeed="0.79" departDelay="19.60" arrival="49.60" arrivalLane="-road2_0" arrivalPos="19.96" arrivalPosLat="0.00" arrivalSpeed="12.25" duration="30.00" routeLength="289.97" waitingTime="0.00" waitingCount="0" stopTime="0.00" timeLoss="8.01" rerouteNo="1" devices="tripinfo_vehicle_31 routing_vehicle_31 emissions_vehicle_31 battery_vehicle_31" vType="human" speedFactor="1.15" vaporized="">
        <emissions CO_abs="0" CO2_abs="0" HC_abs="0" PMx_abs="0" NOx_abs="0" fuel_abs="0" electricity_abs="103.850405"/>
    </tripinfo>
    <tripinfo id="vehicle_24" depart="11.60" departLane="road3_0" departPos="4.10" departPosLat="0.00" departSpeed="0.56" departDelay="11.60" arrival="50.00" arrivalLane="-road0_0" arrivalPos="19.96" arrivalPosLat="0.00" arrivalSpeed="10.91" duration="38.40" routeLength="289.97" waitingTime="0.00" waitingCount="0" stopTime="0.00" timeLoss="11.60" rerouteNo="1" devices="tripinfo_vehicle_24 routing_vehicle_24 emissions_vehicle_24 battery_vehicle_24" vType="human" speedFactor="0.83" vaporized="">
        <emissions CO_abs="0" CO2_abs="0" HC_abs="0" PMx_abs="0" NOx_abs="0" fuel_abs="0" electricity_abs="78.474892"/>
    </tripinfo>
    <tripinfo id="vehicle_22" depart="7.60" departLane="road2_0" departPos="4.10" departPosLat="0.00" departSpeed="2.15" departDelay="7.60" arrival="53.60" arrivalLane="-road0_0" arrivalPos="19.96" arrivalPosLat="0.00" arrivalSpeed="11.96" duration="46.00" routeLength="206.37" waitingTime="19.60" waitingCount="1" stopTime="0.00" timeLoss="29.17" rerouteNo="1" devices="tripinfo_vehicle_22 routing_vehicle_22 emissions_vehicle_22 battery_vehicle_22" vType="human" speedFactor="0.97" vaporized="">
        <emissions CO_abs="0" CO2_abs="0" HC_abs="0" PMx_abs="0" NOx_abs="0" fuel_abs="0" electricity_abs="78.604576"/>
    </tripinfo>
    <tripinfo id="vehicle_25" depart="14.00" departLane="road3_0" departPos="4.10" departPosLat="0.00" departSpeed="1.37" departDelay="14.00" arrival="54.00" arrivalLane="-road2_0" arrivalPos="19.96" arrivalPosLat="0.00" arrivalSpeed="10.99" duration="40.00" routeLength="122.77" waitingTime="20.40" waitingCount="1" stopTime="0.00" timeLoss="28.29" rerouteNo="1" devices="tripinfo_vehicle_25 routing_vehicle_25 emissions_vehicle_25 battery_vehicle_25" vType="human" speedFactor="0.87" vaporized="">
        <emissions CO_abs="0" CO2_abs="0" HC_abs="0" PMx_abs="0" NOx_abs="0" fuel_abs="0" electricity_abs="54.498989"/>
    </tripinfo>
    <tripinfo id="vehicle_23" depart="10.00" departLane="road2_0" departPos="4.10" departPosLat="0.00" departSpeed="3.55" departDelay="10.00" arrival="56.80" arrivalLane="-road0_0" arrivalPos="19.96" arrivalPosLat="0.00" arrivalSpeed="10.89" duration="46.80" routeLength="206.37" waitingTime="18.80" waitingCount="1" stopTime="0.00" timeLoss="28.57" rerouteNo="1" devices="tripinfo_vehicle_23 routing_vehicle_23 emissions_vehicle_23 battery_vehicle_23" vType="human" speedFactor="0.89" vaporized="">
        <emissions CO_abs="0" CO2_abs="0" HC_abs="0" PMx_abs="0" NOx_abs="0" fuel_abs="0" electricity_abs="63.931768"/>
    </tripinfo>
    <tripinfo id="rl_0" depart="37.60" departLane="road2_0" departPos="4.10" departPosLat="0.00" departSpeed="3.45" departDelay="37.60" arrival="60.40" arrivalLane="-road0_0" arrivalPos="19.96" arrivalPosLat="0.00" arrivalSpeed="12.64" duration="22.80" routeLength="206.37" waitingTime="0.00" waitingCount="0" stopTime="0.00" timeLoss="5.87" rerouteNo="1" devices="tripinfo_rl_0 routing_rl_0 emissions_rl_0 battery_rl_0" vType="rlAnget" speedFactor="0.97" vaporized="">
        <emissions CO_abs="0" CO2_abs="0" HC_abs="0" PMx_abs="0" NOx_abs="0" fuel_abs="0" electricity_abs="83.627009"/>
    </tripinfo>
</tripinfos>
