<?xml version="1.0" encoding="UTF-8"?>

<!-- generated on 2024-06-26 09:58:15 by Eclipse SUMO sumo Version v1_20_0+0085-e155ab8699b
<configuration xmlns:xsi="http://www.w3.org/2001/XMLSchema-instance" xsi:noNamespaceSchemaLocation="http://sumo.dlr.de/xsd/sumoConfiguration.xsd">

    <input>
        <net-file value="networks/roundabout.net.xml"/>
        <route-files value="networks/routes1.rou.xml"/>
    </input>

    <output>
        <output-prefix value="54-"/>
        <battery-output.precision value="4"/>
        <tripinfo-output value="networks/output_data/output_folder/tripinfo-output.xml"/>
    </output>

    <time>
        <begin value="0"/>
        <step-length value="0.4"/>
    </time>

    <processing>
        <step-method.ballistic value="true"/>
        <lateral-resolution value="3.2"/>
        <collision.action value="warn"/>
        <collision.mingap-factor value="0"/>
        <time-to-teleport value="-1"/>
        <random-depart-offset value="5"/>
    </processing>

    <report>
        <no-warnings value="True"/>
        <no-step-log value="True"/>
    </report>

    <emissions>
        <device.emissions.probability value="1"/>
    </emissions>

    <battery>
        <device.battery.probability value="1"/>
    </battery>

    <traci_server>
        <remote-port value="39917"/>
    </traci_server>

    <gui_only>
        <quit-on-end value="True"/>
        <start value="False"/>
    </gui_only>

</configuration>
-->

<tripinfos xmlns:xsi="http://www.w3.org/2001/XMLSchema-instance" xsi:noNamespaceSchemaLocation="http://sumo.dlr.de/xsd/tripinfo_file.xsd">
    <tripinfo id="vehicle_3" depart="0.00" departLane="road2_0" departPos="4.10" departPosLat="0.00" departSpeed="7.97" departDelay="0.00" arrival="14.00" arrivalLane="-road1_0" arrivalPos="19.96" arrivalPosLat="0.00" arrivalSpeed="12.86" duration="14.00" routeLength="122.77" waitingTime="0.00" waitingCount="0" stopTime="0.00" timeLoss="3.66" rerouteNo="1" devices="tripinfo_vehicle_3 routing_vehicle_3 emissions_vehicle_3 battery_vehicle_3" vType="human" speedFactor="1.08" vaporized="">
        <emissions CO_abs="0" CO2_abs="0" HC_abs="0" PMx_abs="0" NOx_abs="0" fuel_abs="0" electricity_abs="53.207205"/>
    </tripinfo>
    <tripinfo id="vehicle_10" depart="0.00" departLane="road1_0" departPos="4.10" departPosLat="0.00" departSpeed="5.71" departDelay="0.00" arrival="14.00" arrivalLane="-road0_0" arrivalPos="19.96" arrivalPosLat="0.00" arrivalSpeed="12.99" duration="14.00" routeLength="122.77" waitingTime="0.00" waitingCount="0" stopTime="0.00" timeLoss="3.70" rerouteNo="1" devices="tripinfo_vehicle_10 routing_vehicle_10 emissions_vehicle_10 battery_vehicle_10" vType="human" speedFactor="1.09" vaporized="">
        <emissions CO_abs="0" CO2_abs="0" HC_abs="0" PMx_abs="0" NOx_abs="0" fuel_abs="0" electricity_abs="61.843689"/>
    </tripinfo>
    <tripinfo id="vehicle_6" depart="0.80" departLane="road3_0" departPos="4.10" departPosLat="0.00" departSpeed="5.57" departDelay="0.80" arrival="15.60" arrivalLane="-road2_0" arrivalPos="19.96" arrivalPosLat="0.00" arrivalSpeed="12.80" duration="14.80" routeLength="122.77" waitingTime="0.00" waitingCount="0" stopTime="0.00" timeLoss="4.38" rerouteNo="1" devices="tripinfo_vehicle_6 routing_vehicle_6 emissions_vehicle_6 battery_vehicle_6" vType="human" speedFactor="1.05" vaporized="">
        <emissions CO_abs="0" CO2_abs="0" HC_abs="0" PMx_abs="0" NOx_abs="0" fuel_abs="0" electricity_abs="59.804541"/>
    </tripinfo>
    <tripinfo id="vehicle_2" depart="1.20" departLane="road0_0" departPos="4.10" departPosLat="0.00" departSpeed="4.98" departDelay="1.20" arrival="17.20" arrivalLane="-road3_0" arrivalPos="19.96" arrivalPosLat="0.00" arrivalSpeed="11.68" duration="16.00" routeLength="122.77" waitingTime="0.00" waitingCount="0" stopTime="0.00" timeLoss="5.43" rerouteNo="0" devices="tripinfo_vehicle_2 emissions_vehicle_2 battery_vehicle_2" vType="human" speedFactor="1.01" vaporized="">
        <emissions CO_abs="0" CO2_abs="0" HC_abs="0" PMx_abs="0" NOx_abs="0" fuel_abs="0" electricity_abs="52.338131"/>
    </tripinfo>
    <tripinfo id="vehicle_11" depart="2.00" departLane="road3_0" departPos="4.10" departPosLat="0.00" departSpeed="2.72" departDelay="2.00" arrival="18.40" arrivalLane="-road2_0" arrivalPos="19.96" arrivalPosLat="0.00" arrivalSpeed="12.04" duration="16.40" routeLength="122.77" waitingTime="0.00" waitingCount="0" stopTime="0.00" timeLoss="6.07" rerouteNo="1" devices="tripinfo_vehicle_11 routing_vehicle_11 emissions_vehicle_11 battery_vehicle_11" vType="human" speedFactor="1.03" vaporized="">
        <emissions CO_abs="0" CO2_abs="0" HC_abs="0" PMx_abs="0" NOx_abs="0" fuel_abs="0" electricity_abs="59.435541"/>
    </tripinfo>
    <tripinfo id="vehicle_0" depart="0.00" departLane="road3_0" departPos="4.10" departPosLat="0.00" departSpeed="9.87" departDelay="0.00" arrival="19.60" arrivalLane="-road1_0" arrivalPos="19.96" arrivalPosLat="0.00" arrivalSpeed="12.48" duration="19.60" routeLength="206.37" waitingTime="0.00" waitingCount="0" stopTime="0.00" timeLoss="3.26" rerouteNo="1" devices="tripinfo_vehicle_0 routing_vehicle_0 emissions_vehicle_0 battery_vehicle_0" vType="human" speedFactor="1.06" vaporized="">
        <emissions CO_abs="0" CO2_abs="0" HC_abs="0" PMx_abs="0" NOx_abs="0" fuel_abs="0" electricity_abs="63.786709"/>
    </tripinfo>
    <tripinfo id="vehicle_5" depart="0.80" departLane="road2_0" departPos="4.10" departPosLat="0.00" departSpeed="1.45" departDelay="0.80" arrival="26.40" arrivalLane="-road0_0" arrivalPos="19.96" arrivalPosLat="0.00" arrivalSpeed="11.27" duration="25.60" routeLength="206.37" waitingTime="0.00" waitingCount="0" stopTime="0.00" timeLoss="5.86" rerouteNo="1" devices="tripinfo_vehicle_5 routing_vehicle_5 emissions_vehicle_5 battery_vehicle_5" vType="human" speedFactor="0.83" vaporized="">
        <emissions CO_abs="0" CO2_abs="0" HC_abs="0" PMx_abs="0" NOx_abs="0" fuel_abs="0" electricity_abs="69.446059"/>
    </tripinfo>
    <tripinfo id="vehicle_15" depart="4.00" departLane="road3_0" departPos="4.10" departPosLat="0.00" departSpeed="3.11" departDelay="4.00" arrival="27.60" arrivalLane="-road1_0" arrivalPos="19.96" arrivalPosLat="0.00" arrivalSpeed="11.28" duration="23.60" routeLength="206.37" waitingTime="0.00" waitingCount="0" stopTime="0.00" timeLoss="6.11" rerouteNo="1" devices="tripinfo_vehicle_15 routing_vehicle_15 emissions_vehicle_15 battery_vehicle_15" vType="human" speedFactor="0.93" vaporized="">
        <emissions CO_abs="0" CO2_abs="0" HC_abs="0" PMx_abs="0" NOx_abs="0" fuel_abs="0" electricity_abs="70.864466"/>
    </tripinfo>
    <tripinfo id="vehicle_19" depart="4.80" departLane="road1_0" departPos="4.10" departPosLat="0.00" departSpeed="2.73" departDelay="4.80" arrival="27.60" arrivalLane="-road3_0" arrivalPos="19.96" arrivalPosLat="0.00" arrivalSpeed="12.87" duration="22.80" routeLength="206.37" waitingTime="0.00" waitingCount="0" stopTime="0.00" timeLoss="6.58" rerouteNo="1" devices="tripinfo_vehicle_19 routing_vehicle_19 emissions_vehicle_19 battery_vehicle_19" vType="human" speedFactor="1.16" vaporized="">
        <emissions CO_abs="0" CO2_abs="0" HC_abs="0" PMx_abs="0" NOx_abs="0" fuel_abs="0" electricity_abs="86.338604"/>
    </tripinfo>
    <tripinfo id="vehicle_13" depart="0.80" departLane="road1_0" departPos="4.10" departPosLat="0.00" departSpeed="5.16" departDelay="0.80" arrival="29.60" arrivalLane="-road2_0" arrivalPos="19.96" arrivalPosLat="0.00" arrivalSpeed="12.06" duration="28.80" routeLength="289.97" waitingTime="0.00" waitingCount="0" stopTime="0.00" timeLoss="6.78" rerouteNo="1" devices="tripinfo_vehicle_13 routing_vehicle_13 emissions_vehicle_13 battery_vehicle_13" vType="human" speedFactor="1.12" vaporized="">
        <emissions CO_abs="0" CO2_abs="0" HC_abs="0" PMx_abs="0" NOx_abs="0" fuel_abs="0" electricity_abs="97.879660"/>
    </tripinfo>
    <tripinfo id="vehicle_1" depart="0.00" departLane="road0_0" departPos="4.10" departPosLat="0.00" departSpeed="5.99" departDelay="0.00" arrival="30.00" arrivalLane="-road1_0" arrivalPos="19.96" arrivalPosLat="0.00" arrivalSpeed="11.48" duration="30.00" routeLength="289.97" waitingTime="0.00" waitingCount="0" stopTime="0.00" timeLoss="6.43" rerouteNo="0" devices="tripinfo_vehicle_1 emissions_vehicle_1 battery_vehicle_1" vType="human" speedFactor="0.94" vaporized="">
        <emissions CO_abs="0" CO2_abs="0" HC_abs="0" PMx_abs="0" NOx_abs="0" fuel_abs="0" electricity_abs="82.180653"/>
    </tripinfo>
    <tripinfo id="vehicle_28" depart="9.20" departLane="road1_0" departPos="4.10" departPosLat="0.00" departSpeed="3.10" departDelay="9.20" arrival="30.00" arrivalLane="-road0_0" arrivalPos="19.96" arrivalPosLat="0.00" arrivalSpeed="12.79" duration="20.80" routeLength="122.77" waitingTime="1.20" waitingCount="1" stopTime="0.00" timeLoss="10.51" rerouteNo="1" devices="tripinfo_vehicle_28 routing_vehicle_28 emissions_vehicle_28 battery_vehicle_28" vType="human" speedFactor="1.13" vaporized="">
        <emissions CO_abs="0" CO2_abs="0" HC_abs="0" PMx_abs="0" NOx_abs="0" fuel_abs="0" electricity_abs="65.041107"/>
    </tripinfo>
    <tripinfo id="vehicle_25" depart="6.00" departLane="road3_0" departPos="4.10" departPosLat="0.00" departSpeed="2.68" departDelay="6.00" arrival="32.80" arrivalLane="-road1_0" arrivalPos="19.96" arrivalPosLat="0.00" arrivalSpeed="11.21" duration="26.80" routeLength="206.37" waitingTime="0.00" waitingCount="0" stopTime="0.00" timeLoss="8.11" rerouteNo="1" devices="tripinfo_vehicle_25 routing_vehicle_25 emissions_vehicle_25 battery_vehicle_25" vType="human" speedFactor="0.87" vaporized="">
        <emissions CO_abs="0" CO2_abs="0" HC_abs="0" PMx_abs="0" NOx_abs="0" fuel_abs="0" electricity_abs="67.297245"/>
    </tripinfo>
    <tripinfo id="vehicle_4" depart="2.40" departLane="road0_0" departPos="4.10" departPosLat="0.00" departSpeed="2.81" departDelay="2.40" arrival="34.80" arrivalLane="-road1_0" arrivalPos="19.96" arrivalPosLat="0.00" arrivalSpeed="12.16" duration="32.40" routeLength="289.97" waitingTime="0.00" waitingCount="0" stopTime="0.00" timeLoss="9.96" rerouteNo="0" devices="tripinfo_vehicle_4 emissions_vehicle_4 battery_vehicle_4" vType="human" speedFactor="1.03" vaporized="">
        <emissions CO_abs="0" CO2_abs="0" HC_abs="0" PMx_abs="0" NOx_abs="0" fuel_abs="0" electricity_abs="98.057896"/>
    </tripinfo>
    <tripinfo id="vehicle_16" depart="2.40" departLane="road1_0" departPos="4.10" departPosLat="0.00" departSpeed="1.36" departDelay="2.40" arrival="35.20" arrivalLane="-road2_0" arrivalPos="19.96" arrivalPosLat="0.00" arrivalSpeed="12.19" duration="32.80" routeLength="289.97" waitingTime="0.00" waitingCount="0" stopTime="0.00" timeLoss="6.97" rerouteNo="1" devices="tripinfo_vehicle_16 routing_vehicle_16 emissions_vehicle_16 battery_vehicle_16" vType="human" speedFactor="0.88" vaporized="">
        <emissions CO_abs="0" CO2_abs="0" HC_abs="0" PMx_abs="0" NOx_abs="0" fuel_abs="0" electricity_abs="92.273074"/>
    </tripinfo>
    <tripinfo id="vehicle_24" depart="7.20" departLane="road1_0" departPos="4.10" departPosLat="0.00" departSpeed="0.98" departDelay="7.20" arrival="36.80" arrivalLane="-road3_0" arrivalPos="19.96" arrivalPosLat="0.00" arrivalSpeed="10.21" duration="29.60" routeLength="206.37" waitingTime="1.60" waitingCount="1" stopTime="0.00" timeLoss="9.68" rerouteNo="1" devices="tripinfo_vehicle_24 routing_vehicle_24 emissions_vehicle_24 battery_vehicle_24" vType="human" speedFactor="0.83" vaporized="">
        <emissions CO_abs="0" CO2_abs="0" HC_abs="0" PMx_abs="0" NOx_abs="0" fuel_abs="0" electricity_abs="63.272241"/>
    </tripinfo>
    <tripinfo id="vehicle_30" depart="11.20" departLane="road1_0" departPos="4.10" departPosLat="0.00" departSpeed="1.27" departDelay="11.20" arrival="39.60" arrivalLane="-road3_0" arrivalPos="19.96" arrivalPosLat="0.00" arrivalSpeed="12.94" duration="28.40" routeLength="206.37" waitingTime="0.00" waitingCount="0" stopTime="0.00" timeLoss="12.18" rerouteNo="1" devices="tripinfo_vehicle_30 routing_vehicle_30 emissions_vehicle_30 battery_vehicle_30" vType="human" speedFactor="1.18" vaporized="">
        <emissions CO_abs="0" CO2_abs="0" HC_abs="0" PMx_abs="0" NOx_abs="0" fuel_abs="0" electricity_abs="86.881093"/>
    </tripinfo>
    <tripinfo id="vehicle_9" depart="4.80" departLane="road2_0" departPos="4.10" departPosLat="0.00" departSpeed="2.42" departDelay="4.80" arrival="40.00" arrivalLane="-road1_0" arrivalPos="19.96" arrivalPosLat="0.00" arrivalSpeed="10.92" duration="35.20" routeLength="122.77" waitingTime="11.60" waitingCount="1" stopTime="0.00" timeLoss="23.12" rerouteNo="1" devices="tripinfo_vehicle_9 routing_vehicle_9 emissions_vehicle_9 battery_vehicle_9" vType="human" speedFactor="0.86" vaporized="">
        <emissions CO_abs="0" CO2_abs="0" HC_abs="0" PMx_abs="0" NOx_abs="0" fuel_abs="0" electricity_abs="47.059718"/>
    </tripinfo>
    <tripinfo id="vehicle_33" depart="17.20" departLane="road1_0" departPos="4.10" departPosLat="0.00" departSpeed="0.70" departDelay="17.20" arrival="41.60" arrivalLane="-road3_0" arrivalPos="19.96" arrivalPosLat="0.00" arrivalSpeed="12.84" duration="24.40" routeLength="206.37" waitingTime="0.00" waitingCount="0" stopTime="0.00" timeLoss="8.21" rerouteNo="1" devices="tripinfo_vehicle_33 routing_vehicle_33 emissions_vehicle_33 battery_vehicle_33" vType="human" speedFactor="1.17" vaporized="">
        <emissions CO_abs="0" CO2_abs="0" HC_abs="0" PMx_abs="0" NOx_abs="0" fuel_abs="0" electricity_abs="85.456716"/>
    </tripinfo>
    <tripinfo id="vehicle_7" depart="4.40" departLane="road0_0" departPos="4.10" departPosLat="0.00" departSpeed="2.05" departDelay="4.40" arrival="42.00" arrivalLane="-road1_0" arrivalPos="19.96" arrivalPosLat="0.00" arrivalSpeed="11.42" duration="37.60" routeLength="289.97" waitingTime="0.00" waitingCount="0" stopTime="0.00" timeLoss="12.32" rerouteNo="0" devices="tripinfo_vehicle_7 emissions_vehicle_7 battery_vehicle_7" vType="human" speedFactor="0.89" vaporized="">
        <emissions CO_abs="0" CO2_abs="0" HC_abs="0" PMx_abs="0" NOx_abs="0" fuel_abs="0" electricity_abs="84.250482"/>
    </tripinfo>
    <tripinfo id="vehicle_35" depart="20.40" departLane="road1_0" departPos="4.10" departPosLat="0.00" departSpeed="3.37" departDelay="20.40" arrival="44.40" arrivalLane="-road3_0" arrivalPos="19.96" arrivalPosLat="0.00" arrivalSpeed="12.59" duration="24.00" routeLength="206.37" waitingTime="0.00" waitingCount="0" stopTime="0.00" timeLoss="7.81" rerouteNo="1" devices="tripinfo_vehicle_35 routing_vehicle_35 emissions_vehicle_35 battery_vehicle_35" vType="human" speedFactor="1.02" vaporized="">
        <emissions CO_abs="0" CO2_abs="0" HC_abs="0" PMx_abs="0" NOx_abs="0" fuel_abs="0" electricity_abs="79.186348"/>
    </tripinfo>
    <tripinfo id="vehicle_8" depart="2.40" departLane="road2_0" departPos="4.10" departPosLat="0.00" departSpeed="1.45" departDelay="2.40" arrival="44.80" arrivalLane="-road0_0" arrivalPos="19.96" arrivalPosLat="0.00" arrivalSpeed="12.03" duration="42.40" routeLength="206.37" waitingTime="12.00" waitingCount="2" stopTime="0.00" timeLoss="25.02" rerouteNo="1" devices="tripinfo_vehicle_8 routing_vehicle_8 emissions_vehicle_8 battery_vehicle_8" vType="human" speedFactor="0.94" vaporized="">
        <emissions CO_abs="0" CO2_abs="0" HC_abs="0" PMx_abs="0" NOx_abs="0" fuel_abs="0" electricity_abs="75.823849"/>
    </tripinfo>
    <tripinfo id="vehicle_21" depart="22.80" departLane="road2_0" departPos="4.10" departPosLat="0.00" departSpeed="1.16" departDelay="22.80" arrival="44.80" arrivalLane="-road1_0" arrivalPos="19.96" arrivalPosLat="0.00" arrivalSpeed="11.91" duration="22.00" routeLength="122.77" waitingTime="0.00" waitingCount="0" stopTime="0.00" timeLoss="11.86" rerouteNo="1" devices="tripinfo_vehicle_21 routing_vehicle_21 emissions_vehicle_21 battery_vehicle_21" vType="human" speedFactor="1.01" vaporized="">
        <emissions CO_abs="0" CO2_abs="0" HC_abs="0" PMx_abs="0" NOx_abs="0" fuel_abs="0" electricity_abs="54.738282"/>
    </tripinfo>
    <tripinfo id="vehicle_12" depart="6.80" departLane="road0_0" departPos="4.10" departPosLat="0.00" departSpeed="2.72" departDelay="6.80" arrival="47.20" arrivalLane="-road3_0" arrivalPos="19.96" arrivalPosLat="0.00" arrivalSpeed="11.59" duration="40.40" routeLength="122.77" waitingTime="21.20" waitingCount="1" stopTime="0.00" timeLoss="30.03" rerouteNo="0" devices="tripinfo_vehicle_12 emissions_vehicle_12 battery_vehicle_12" vType="human" speedFactor="1.05" vaporized="">
        <emissions CO_abs="0" CO2_abs="0" HC_abs="0" PMx_abs="0" NOx_abs="0" fuel_abs="0" electricity_abs="57.058348"/>
    </tripinfo>
    <tripinfo id="vehicle_27" depart="8.00" departLane="road3_0" departPos="4.10" departPosLat="0.00" departSpeed="2.83" departDelay="8.00" arrival="47.20" arrivalLane="-road1_0" arrivalPos="19.96" arrivalPosLat="0.00" arrivalSpeed="13.20" duration="39.20" routeLength="206.37" waitingTime="6.40" waitingCount="1" stopTime="0.00" timeLoss="21.83" rerouteNo="1" devices="tripinfo_vehicle_27 routing_vehicle_27 emissions_vehicle_27 battery_vehicle_27" vType="human" speedFactor="0.95" vaporized="">
        <emissions CO_abs="0" CO2_abs="0" HC_abs="0" PMx_abs="0" NOx_abs="0" fuel_abs="0" electricity_abs="75.731011"/>
    </tripinfo>
    <tripinfo id="rl_0" depart="22.40" departLane="road1_0" departPos="4.10" departPosLat="0.00" departSpeed="1.72" departDelay="22.40" arrival="50.00" arrivalLane="-road2_0" arrivalPos="19.96" arrivalPosLat="0.00" arrivalSpeed="13.16" duration="27.60" routeLength="289.97" waitingTime="0.00" waitingCount="0" stopTime="0.00" timeLoss="4.74" rerouteNo="1" devices="tripinfo_rl_0 routing_rl_0 emissions_rl_0 battery_rl_0" vType="rlAnget" speedFactor="0.97" vaporized="">
        <emissions CO_abs="0" CO2_abs="0" HC_abs="0" PMx_abs="0" NOx_abs="0" fuel_abs="0" electricity_abs="113.130347"/>
    </tripinfo>
</tripinfos>
