<?xml version="1.0" encoding="UTF-8"?>

<!-- generated on 2024-06-26 09:58:18 by Eclipse SUMO sumo Version v1_20_0+0085-e155ab8699b
<configuration xmlns:xsi="http://www.w3.org/2001/XMLSchema-instance" xsi:noNamespaceSchemaLocation="http://sumo.dlr.de/xsd/sumoConfiguration.xsd">

    <input>
        <net-file value="networks/roundabout.net.xml"/>
        <route-files value="networks/routes1.rou.xml"/>
    </input>

    <output>
        <output-prefix value="57-"/>
        <battery-output.precision value="4"/>
        <tripinfo-output value="networks/output_data/output_folder/tripinfo-output.xml"/>
    </output>

    <time>
        <begin value="0"/>
        <step-length value="0.4"/>
    </time>

    <processing>
        <step-method.ballistic value="true"/>
        <lateral-resolution value="3.2"/>
        <collision.action value="warn"/>
        <collision.mingap-factor value="0"/>
        <time-to-teleport value="-1"/>
        <random-depart-offset value="5"/>
    </processing>

    <report>
        <no-warnings value="True"/>
        <no-step-log value="True"/>
    </report>

    <emissions>
        <device.emissions.probability value="1"/>
    </emissions>

    <battery>
        <device.battery.probability value="1"/>
    </battery>

    <traci_server>
        <remote-port value="52697"/>
    </traci_server>

    <gui_only>
        <quit-on-end value="True"/>
        <start value="False"/>
    </gui_only>

</configuration>
-->

<tripinfos xmlns:xsi="http://www.w3.org/2001/XMLSchema-instance" xsi:noNamespaceSchemaLocation="http://sumo.dlr.de/xsd/tripinfo_file.xsd">
    <tripinfo id="vehicle_10" depart="0.00" departLane="road1_0" departPos="4.10" departPosLat="0.00" departSpeed="5.71" departDelay="0.00" arrival="14.00" arrivalLane="-road0_0" arrivalPos="19.96" arrivalPosLat="0.00" arrivalSpeed="12.99" duration="14.00" routeLength="122.77" waitingTime="0.00" waitingCount="0" stopTime="0.00" timeLoss="3.72" rerouteNo="1" devices="tripinfo_vehicle_10 routing_vehicle_10 emissions_vehicle_10 battery_vehicle_10" vType="human" speedFactor="1.09" vaporized="">
        <emissions CO_abs="0" CO2_abs="0" HC_abs="0" PMx_abs="0" NOx_abs="0" fuel_abs="0" electricity_abs="61.881507"/>
    </tripinfo>
    <tripinfo id="vehicle_4" depart="0.00" departLane="road0_0" departPos="4.10" departPosLat="0.00" departSpeed="7.97" departDelay="0.00" arrival="14.40" arrivalLane="-road3_0" arrivalPos="19.96" arrivalPosLat="0.00" arrivalSpeed="11.81" duration="14.40" routeLength="122.77" waitingTime="0.00" waitingCount="0" stopTime="0.00" timeLoss="3.87" rerouteNo="0" devices="tripinfo_vehicle_4 emissions_vehicle_4 battery_vehicle_4" vType="human" speedFactor="1.03" vaporized="">
        <emissions CO_abs="0" CO2_abs="0" HC_abs="0" PMx_abs="0" NOx_abs="0" fuel_abs="0" electricity_abs="45.872018"/>
    </tripinfo>
    <tripinfo id="vehicle_13" depart="0.80" departLane="road1_0" departPos="4.10" departPosLat="0.00" departSpeed="5.55" departDelay="0.80" arrival="16.40" arrivalLane="-road0_0" arrivalPos="19.96" arrivalPosLat="0.00" arrivalSpeed="12.58" duration="15.60" routeLength="122.77" waitingTime="0.00" waitingCount="0" stopTime="0.00" timeLoss="5.44" rerouteNo="1" devices="tripinfo_vehicle_13 routing_vehicle_13 emissions_vehicle_13 battery_vehicle_13" vType="human" speedFactor="1.12" vaporized="">
        <emissions CO_abs="0" CO2_abs="0" HC_abs="0" PMx_abs="0" NOx_abs="0" fuel_abs="0" electricity_abs="59.130902"/>
    </tripinfo>
    <tripinfo id="vehicle_5" depart="0.80" departLane="road0_0" departPos="4.10" departPosLat="0.00" departSpeed="4.47" departDelay="0.80" arrival="18.40" arrivalLane="-road3_0" arrivalPos="19.96" arrivalPosLat="0.00" arrivalSpeed="11.41" duration="17.60" routeLength="122.77" waitingTime="0.00" waitingCount="0" stopTime="0.00" timeLoss="5.13" rerouteNo="0" devices="tripinfo_vehicle_5 emissions_vehicle_5 battery_vehicle_5" vType="human" speedFactor="0.83" vaporized="">
        <emissions CO_abs="0" CO2_abs="0" HC_abs="0" PMx_abs="0" NOx_abs="0" fuel_abs="0" electricity_abs="47.924299"/>
    </tripinfo>
    <tripinfo id="vehicle_12" depart="2.40" departLane="road0_0" departPos="4.10" departPosLat="0.00" departSpeed="2.45" departDelay="2.40" arrival="20.00" arrivalLane="-road3_0" arrivalPos="19.96" arrivalPosLat="0.00" arrivalSpeed="13.07" duration="17.60" routeLength="122.77" waitingTime="0.00" waitingCount="0" stopTime="0.00" timeLoss="7.38" rerouteNo="0" devices="tripinfo_vehicle_12 emissions_vehicle_12 battery_vehicle_12" vType="human" speedFactor="1.05" vaporized="">
        <emissions CO_abs="0" CO2_abs="0" HC_abs="0" PMx_abs="0" NOx_abs="0" fuel_abs="0" electricity_abs="64.523471"/>
    </tripinfo>
    <tripinfo id="vehicle_0" depart="0.00" departLane="road2_0" departPos="4.10" departPosLat="0.00" departSpeed="9.87" departDelay="0.00" arrival="21.60" arrivalLane="-road0_0" arrivalPos="19.96" arrivalPosLat="0.00" arrivalSpeed="12.30" duration="21.60" routeLength="206.37" waitingTime="0.00" waitingCount="0" stopTime="0.00" timeLoss="5.17" rerouteNo="1" devices="tripinfo_vehicle_0 routing_vehicle_0 emissions_vehicle_0 battery_vehicle_0" vType="human" speedFactor="1.06" vaporized="">
        <emissions CO_abs="0" CO2_abs="0" HC_abs="0" PMx_abs="0" NOx_abs="0" fuel_abs="0" electricity_abs="57.298906"/>
    </tripinfo>
    <tripinfo id="vehicle_18" depart="7.20" departLane="road3_0" departPos="4.10" departPosLat="0.00" departSpeed="2.82" departDelay="7.20" arrival="23.60" arrivalLane="-road2_0" arrivalPos="19.96" arrivalPosLat="0.00" arrivalSpeed="12.04" duration="16.40" routeLength="122.77" waitingTime="0.00" waitingCount="0" stopTime="0.00" timeLoss="5.35" rerouteNo="1" devices="tripinfo_vehicle_18 routing_vehicle_18 emissions_vehicle_18 battery_vehicle_18" vType="human" speedFactor="0.94" vaporized="">
        <emissions CO_abs="0" CO2_abs="0" HC_abs="0" PMx_abs="0" NOx_abs="0" fuel_abs="0" electricity_abs="59.226914"/>
    </tripinfo>
    <tripinfo id="vehicle_7" depart="0.80" departLane="road3_0" departPos="4.10" departPosLat="0.00" departSpeed="1.75" departDelay="0.80" arrival="24.80" arrivalLane="-road1_0" arrivalPos="19.96" arrivalPosLat="0.00" arrivalSpeed="12.09" duration="24.00" routeLength="206.37" waitingTime="0.00" waitingCount="0" stopTime="0.00" timeLoss="5.53" rerouteNo="1" devices="tripinfo_vehicle_7 routing_vehicle_7 emissions_vehicle_7 battery_vehicle_7" vType="human" speedFactor="0.89" vaporized="">
        <emissions CO_abs="0" CO2_abs="0" HC_abs="0" PMx_abs="0" NOx_abs="0" fuel_abs="0" electricity_abs="77.589899"/>
    </tripinfo>
    <tripinfo id="vehicle_14" depart="2.40" departLane="road1_0" departPos="4.10" departPosLat="0.00" departSpeed="1.43" departDelay="2.40" arrival="27.20" arrivalLane="-road3_0" arrivalPos="19.96" arrivalPosLat="0.00" arrivalSpeed="12.62" duration="24.80" routeLength="206.37" waitingTime="0.00" waitingCount="0" stopTime="0.00" timeLoss="8.37" rerouteNo="1" devices="tripinfo_vehicle_14 routing_vehicle_14 emissions_vehicle_14 battery_vehicle_14" vType="human" speedFactor="0.99" vaporized="">
        <emissions CO_abs="0" CO2_abs="0" HC_abs="0" PMx_abs="0" NOx_abs="0" fuel_abs="0" electricity_abs="80.810854"/>
    </tripinfo>
    <tripinfo id="vehicle_30" depart="11.20" departLane="road3_0" departPos="4.10" departPosLat="0.00" departSpeed="1.84" departDelay="11.20" arrival="27.60" arrivalLane="-road2_0" arrivalPos="19.96" arrivalPosLat="0.00" arrivalSpeed="12.41" duration="16.40" routeLength="122.77" waitingTime="0.00" waitingCount="0" stopTime="0.00" timeLoss="6.53" rerouteNo="1" devices="tripinfo_vehicle_30 routing_vehicle_30 emissions_vehicle_30 battery_vehicle_30" vType="human" speedFactor="1.18" vaporized="">
        <emissions CO_abs="0" CO2_abs="0" HC_abs="0" PMx_abs="0" NOx_abs="0" fuel_abs="0" electricity_abs="63.982257"/>
    </tripinfo>
    <tripinfo id="vehicle_1" depart="0.00" departLane="road3_0" departPos="4.10" departPosLat="0.00" departSpeed="5.99" departDelay="0.00" arrival="28.00" arrivalLane="-road0_0" arrivalPos="19.96" arrivalPosLat="0.00" arrivalSpeed="12.04" duration="28.00" routeLength="289.97" waitingTime="0.00" waitingCount="0" stopTime="0.00" timeLoss="4.27" rerouteNo="1" devices="tripinfo_vehicle_1 routing_vehicle_1 emissions_vehicle_1 battery_vehicle_1" vType="human" speedFactor="0.94" vaporized="">
        <emissions CO_abs="0" CO2_abs="0" HC_abs="0" PMx_abs="0" NOx_abs="0" fuel_abs="0" electricity_abs="92.525510"/>
    </tripinfo>
    <tripinfo id="vehicle_2" depart="0.80" departLane="road2_0" departPos="4.10" departPosLat="0.00" departSpeed="5.44" departDelay="0.80" arrival="29.20" arrivalLane="-road3_0" arrivalPos="19.96" arrivalPosLat="0.00" arrivalSpeed="12.59" duration="28.40" routeLength="289.97" waitingTime="0.00" waitingCount="0" stopTime="0.00" timeLoss="6.19" rerouteNo="1" devices="tripinfo_vehicle_2 routing_vehicle_2 emissions_vehicle_2 battery_vehicle_2" vType="human" speedFactor="1.01" vaporized="">
        <emissions CO_abs="0" CO2_abs="0" HC_abs="0" PMx_abs="0" NOx_abs="0" fuel_abs="0" electricity_abs="97.330742"/>
    </tripinfo>
    <tripinfo id="vehicle_20" depart="6.80" departLane="road0_0" departPos="4.10" departPosLat="0.00" departSpeed="2.78" departDelay="6.80" arrival="31.60" arrivalLane="-road2_0" arrivalPos="19.96" arrivalPosLat="0.00" arrivalSpeed="12.52" duration="24.80" routeLength="206.37" waitingTime="0.00" waitingCount="0" stopTime="0.00" timeLoss="8.28" rerouteNo="0" devices="tripinfo_vehicle_20 emissions_vehicle_20 battery_vehicle_20" vType="human" speedFactor="1.02" vaporized="">
        <emissions CO_abs="0" CO2_abs="0" HC_abs="0" PMx_abs="0" NOx_abs="0" fuel_abs="0" electricity_abs="78.878659"/>
    </tripinfo>
    <tripinfo id="vehicle_3" depart="2.00" departLane="road2_0" departPos="4.10" departPosLat="0.00" departSpeed="3.49" departDelay="2.00" arrival="33.60" arrivalLane="-road3_0" arrivalPos="19.96" arrivalPosLat="0.00" arrivalSpeed="11.31" duration="31.60" routeLength="289.97" waitingTime="0.00" waitingCount="0" stopTime="0.00" timeLoss="9.57" rerouteNo="1" devices="tripinfo_vehicle_3 routing_vehicle_3 emissions_vehicle_3 battery_vehicle_3" vType="human" speedFactor="1.08" vaporized="">
        <emissions CO_abs="0" CO2_abs="0" HC_abs="0" PMx_abs="0" NOx_abs="0" fuel_abs="0" electricity_abs="90.157606"/>
    </tripinfo>
    <tripinfo id="vehicle_8" depart="2.80" departLane="road3_0" departPos="4.10" departPosLat="0.00" departSpeed="2.72" departDelay="2.80" arrival="34.80" arrivalLane="-road0_0" arrivalPos="19.96" arrivalPosLat="0.00" arrivalSpeed="12.25" duration="32.00" routeLength="289.97" waitingTime="0.00" waitingCount="0" stopTime="0.00" timeLoss="8.14" rerouteNo="1" devices="tripinfo_vehicle_8 routing_vehicle_8 emissions_vehicle_8 battery_vehicle_8" vType="human" speedFactor="0.94" vaporized="">
        <emissions CO_abs="0" CO2_abs="0" HC_abs="0" PMx_abs="0" NOx_abs="0" fuel_abs="0" electricity_abs="94.911816"/>
    </tripinfo>
    <tripinfo id="vehicle_19" depart="4.80" departLane="road0_0" departPos="4.10" departPosLat="0.00" departSpeed="3.44" departDelay="4.80" arrival="35.60" arrivalLane="-road1_0" arrivalPos="19.96" arrivalPosLat="0.00" arrivalSpeed="12.65" duration="30.80" routeLength="289.97" waitingTime="0.00" waitingCount="0" stopTime="0.00" timeLoss="8.70" rerouteNo="0" devices="tripinfo_vehicle_19 emissions_vehicle_19 battery_vehicle_19" vType="human" speedFactor="1.16" vaporized="">
        <emissions CO_abs="0" CO2_abs="0" HC_abs="0" PMx_abs="0" NOx_abs="0" fuel_abs="0" electricity_abs="101.986421"/>
    </tripinfo>
    <tripinfo id="vehicle_9" depart="4.80" departLane="road3_0" departPos="4.10" departPosLat="0.00" departSpeed="2.63" departDelay="4.80" arrival="40.00" arrivalLane="-road0_0" arrivalPos="19.96" arrivalPosLat="0.00" arrivalSpeed="11.86" duration="35.20" routeLength="289.97" waitingTime="0.00" waitingCount="0" stopTime="0.00" timeLoss="9.35" rerouteNo="1" devices="tripinfo_vehicle_9 routing_vehicle_9 emissions_vehicle_9 battery_vehicle_9" vType="human" speedFactor="0.86" vaporized="">
        <emissions CO_abs="0" CO2_abs="0" HC_abs="0" PMx_abs="0" NOx_abs="0" fuel_abs="0" electricity_abs="86.013005"/>
    </tripinfo>
    <tripinfo id="vehicle_27" depart="21.20" departLane="road1_0" departPos="4.10" departPosLat="0.00" departSpeed="1.31" departDelay="21.20" arrival="42.40" arrivalLane="-road0_0" arrivalPos="19.96" arrivalPosLat="0.00" arrivalSpeed="11.44" duration="21.20" routeLength="122.77" waitingTime="0.00" waitingCount="0" stopTime="0.00" timeLoss="10.35" rerouteNo="1" devices="tripinfo_vehicle_27 routing_vehicle_27 emissions_vehicle_27 battery_vehicle_27" vType="human" speedFactor="0.95" vaporized="">
        <emissions CO_abs="0" CO2_abs="0" HC_abs="0" PMx_abs="0" NOx_abs="0" fuel_abs="0" electricity_abs="50.361551"/>
    </tripinfo>
    <tripinfo id="vehicle_23" depart="11.20" departLane="road0_0" departPos="4.10" departPosLat="0.00" departSpeed="3.83" departDelay="11.20" arrival="44.40" arrivalLane="-road2_0" arrivalPos="19.96" arrivalPosLat="0.00" arrivalSpeed="11.59" duration="33.20" routeLength="206.37" waitingTime="2.40" waitingCount="1" stopTime="0.00" timeLoss="15.31" rerouteNo="0" devices="tripinfo_vehicle_23 emissions_vehicle_23 battery_vehicle_23" vType="human" speedFactor="0.89" vaporized="">
        <emissions CO_abs="0" CO2_abs="0" HC_abs="0" PMx_abs="0" NOx_abs="0" fuel_abs="0" electricity_abs="64.690400"/>
    </tripinfo>
    <tripinfo id="vehicle_29" depart="9.20" departLane="road3_0" departPos="4.10" departPosLat="0.00" departSpeed="2.49" departDelay="9.20" arrival="44.80" arrivalLane="-road0_0" arrivalPos="19.96" arrivalPosLat="0.00" arrivalSpeed="11.36" duration="35.60" routeLength="289.97" waitingTime="0.00" waitingCount="0" stopTime="0.00" timeLoss="11.84" rerouteNo="1" devices="tripinfo_vehicle_29 routing_vehicle_29 emissions_vehicle_29 battery_vehicle_29" vType="human" speedFactor="0.93" vaporized="">
        <emissions CO_abs="0" CO2_abs="0" HC_abs="0" PMx_abs="0" NOx_abs="0" fuel_abs="0" electricity_abs="84.212727"/>
    </tripinfo>
    <tripinfo id="vehicle_17" depart="9.20" departLane="road1_0" departPos="4.10" departPosLat="0.00" departSpeed="1.47" departDelay="9.20" arrival="45.20" arrivalLane="-road3_0" arrivalPos="19.96" arrivalPosLat="0.00" arrivalSpeed="11.96" duration="36.00" routeLength="206.37" waitingTime="2.80" waitingCount="1" stopTime="0.00" timeLoss="18.68" rerouteNo="1" devices="tripinfo_vehicle_17 routing_vehicle_17 emissions_vehicle_17 battery_vehicle_17" vType="human" speedFactor="0.94" vaporized="">
        <emissions CO_abs="0" CO2_abs="0" HC_abs="0" PMx_abs="0" NOx_abs="0" fuel_abs="0" electricity_abs="74.241954"/>
    </tripinfo>
    <tripinfo id="vehicle_25" depart="28.00" departLane="road2_0" departPos="4.10" departPosLat="0.00" departSpeed="0.73" departDelay="28.00" arrival="45.60" arrivalLane="-road1_0" arrivalPos="19.96" arrivalPosLat="0.00" arrivalSpeed="11.17" duration="17.60" routeLength="122.77" waitingTime="0.00" waitingCount="0" stopTime="0.00" timeLoss="5.65" rerouteNo="1" devices="tripinfo_vehicle_25 routing_vehicle_25 emissions_vehicle_25 battery_vehicle_25" vType="human" speedFactor="0.87" vaporized="">
        <emissions CO_abs="0" CO2_abs="0" HC_abs="0" PMx_abs="0" NOx_abs="0" fuel_abs="0" electricity_abs="53.657936"/>
    </tripinfo>
    <tripinfo id="vehicle_6" depart="3.60" departLane="road2_0" departPos="4.10" departPosLat="0.00" departSpeed="1.42" departDelay="3.60" arrival="47.20" arrivalLane="-road0_0" arrivalPos="19.96" arrivalPosLat="0.00" arrivalSpeed="12.33" duration="43.60" routeLength="206.37" waitingTime="15.60" waitingCount="2" stopTime="0.00" timeLoss="27.08" rerouteNo="1" devices="tripinfo_vehicle_6 routing_vehicle_6 emissions_vehicle_6 battery_vehicle_6" vType="human" speedFactor="1.05" vaporized="">
        <emissions CO_abs="0" CO2_abs="0" HC_abs="0" PMx_abs="0" NOx_abs="0" fuel_abs="0" electricity_abs="79.904237"/>
    </tripinfo>
    <tripinfo id="vehicle_15" depart="4.80" departLane="road1_0" departPos="4.10" departPosLat="0.00" departSpeed="2.74" departDelay="4.80" arrival="47.20" arrivalLane="-road2_0" arrivalPos="19.96" arrivalPosLat="0.00" arrivalSpeed="12.87" duration="42.40" routeLength="289.97" waitingTime="5.60" waitingCount="1" stopTime="0.00" timeLoss="18.17" rerouteNo="1" devices="tripinfo_vehicle_15 routing_vehicle_15 emissions_vehicle_15 battery_vehicle_15" vType="human" speedFactor="0.93" vaporized="">
        <emissions CO_abs="0" CO2_abs="0" HC_abs="0" PMx_abs="0" NOx_abs="0" fuel_abs="0" electricity_abs="94.467539"/>
    </tripinfo>
    <tripinfo id="vehicle_21" depart="8.80" departLane="road0_0" departPos="4.10" departPosLat="0.00" departSpeed="2.01" departDelay="8.80" arrival="47.60" arrivalLane="-road1_0" arrivalPos="19.96" arrivalPosLat="0.00" arrivalSpeed="12.17" duration="38.80" routeLength="289.97" waitingTime="2.80" waitingCount="1" stopTime="0.00" timeLoss="16.43" rerouteNo="0" devices="tripinfo_vehicle_21 emissions_vehicle_21 battery_vehicle_21" vType="human" speedFactor="1.01" vaporized="">
        <emissions CO_abs="0" CO2_abs="0" HC_abs="0" PMx_abs="0" NOx_abs="0" fuel_abs="0" electricity_abs="93.875012"/>
    </tripinfo>
    <tripinfo id="vehicle_26" depart="13.20" departLane="road0_0" departPos="4.10" departPosLat="0.00" departSpeed="1.55" departDelay="13.20" arrival="49.20" arrivalLane="-road2_0" arrivalPos="19.96" arrivalPosLat="0.00" arrivalSpeed="11.82" duration="36.00" routeLength="206.37" waitingTime="0.40" waitingCount="1" stopTime="0.00" timeLoss="18.00" rerouteNo="0" devices="tripinfo_vehicle_26 emissions_vehicle_26 battery_vehicle_26" vType="human" speedFactor="0.92" vaporized="">
        <emissions CO_abs="0" CO2_abs="0" HC_abs="0" PMx_abs="0" NOx_abs="0" fuel_abs="0" electricity_abs="66.698178"/>
    </tripinfo>
    <tripinfo id="vehicle_22" depart="8.00" departLane="road2_0" departPos="4.10" departPosLat="0.00" departSpeed="1.01" departDelay="8.00" arrival="50.00" arrivalLane="-road0_0" arrivalPos="19.96" arrivalPosLat="0.00" arrivalSpeed="11.25" duration="42.00" routeLength="206.37" waitingTime="14.00" waitingCount="1" stopTime="0.00" timeLoss="25.40" rerouteNo="1" devices="tripinfo_vehicle_22 routing_vehicle_22 emissions_vehicle_22 battery_vehicle_22" vType="human" speedFactor="0.97" vaporized="">
        <emissions CO_abs="0" CO2_abs="0" HC_abs="0" PMx_abs="0" NOx_abs="0" fuel_abs="0" electricity_abs="74.810461"/>
    </tripinfo>
    <tripinfo id="vehicle_16" depart="7.20" departLane="road1_0" departPos="4.10" departPosLat="0.00" departSpeed="3.96" departDelay="7.20" arrival="51.60" arrivalLane="-road2_0" arrivalPos="19.96" arrivalPosLat="0.00" arrivalSpeed="10.32" duration="44.40" routeLength="289.97" waitingTime="4.40" waitingCount="1" stopTime="0.00" timeLoss="19.12" rerouteNo="1" devices="tripinfo_vehicle_16 routing_vehicle_16 emissions_vehicle_16 battery_vehicle_16" vType="human" speedFactor="0.88" vaporized="">
        <emissions CO_abs="0" CO2_abs="0" HC_abs="0" PMx_abs="0" NOx_abs="0" fuel_abs="0" electricity_abs="71.868242"/>
    </tripinfo>
    <tripinfo id="vehicle_11" depart="6.00" departLane="road2_0" departPos="4.10" departPosLat="0.00" departSpeed="3.02" departDelay="6.00" arrival="52.80" arrivalLane="-road3_0" arrivalPos="19.96" arrivalPosLat="0.00" arrivalSpeed="11.94" duration="46.80" routeLength="289.97" waitingTime="14.80" waitingCount="1" stopTime="0.00" timeLoss="24.53" rerouteNo="1" devices="tripinfo_vehicle_11 routing_vehicle_11 emissions_vehicle_11 battery_vehicle_11" vType="human" speedFactor="1.03" vaporized="">
        <emissions CO_abs="0" CO2_abs="0" HC_abs="0" PMx_abs="0" NOx_abs="0" fuel_abs="0" electricity_abs="100.728379"/>
    </tripinfo>
    <tripinfo id="vehicle_31" depart="19.60" departLane="road0_0" departPos="4.10" departPosLat="0.00" departSpeed="1.22" departDelay="19.60" arrival="53.20" arrivalLane="-road2_0" arrivalPos="19.96" arrivalPosLat="0.00" arrivalSpeed="12.90" duration="33.60" routeLength="206.37" waitingTime="3.60" waitingCount="1" stopTime="0.00" timeLoss="17.61" rerouteNo="0" devices="tripinfo_vehicle_31 emissions_vehicle_31 battery_vehicle_31" vType="human" speedFactor="1.15" vaporized="">
        <emissions CO_abs="0" CO2_abs="0" HC_abs="0" PMx_abs="0" NOx_abs="0" fuel_abs="0" electricity_abs="80.232022"/>
    </tripinfo>
    <tripinfo id="rl_0" depart="36.80" departLane="road2_0" departPos="4.10" departPosLat="0.00" departSpeed="2.18" departDelay="36.80" arrival="54.00" arrivalLane="-road1_0" arrivalPos="19.96" arrivalPosLat="0.00" arrivalSpeed="13.08" duration="17.20" routeLength="122.77" waitingTime="0.00" waitingCount="0" stopTime="0.00" timeLoss="6.49" rerouteNo="1" devices="tripinfo_rl_0 routing_rl_0 emissions_rl_0 battery_rl_0" vType="rlAnget" speedFactor="0.97" vaporized="">
        <emissions CO_abs="0" CO2_abs="0" HC_abs="0" PMx_abs="0" NOx_abs="0" fuel_abs="0" electricity_abs="64.209522"/>
    </tripinfo>
</tripinfos>
