<?xml version="1.0" encoding="UTF-8"?>

<!-- generated on 2024-06-26 09:58:35 by Eclipse SUMO sumo Version v1_20_0+0085-e155ab8699b
<configuration xmlns:xsi="http://www.w3.org/2001/XMLSchema-instance" xsi:noNamespaceSchemaLocation="http://sumo.dlr.de/xsd/sumoConfiguration.xsd">

    <input>
        <net-file value="networks/roundabout.net.xml"/>
        <route-files value="networks/routes1.rou.xml"/>
    </input>

    <output>
        <output-prefix value="72-"/>
        <battery-output.precision value="4"/>
        <tripinfo-output value="networks/output_data/output_folder/tripinfo-output.xml"/>
    </output>

    <time>
        <begin value="0"/>
        <step-length value="0.4"/>
    </time>

    <processing>
        <step-method.ballistic value="true"/>
        <lateral-resolution value="3.2"/>
        <collision.action value="warn"/>
        <collision.mingap-factor value="0"/>
        <time-to-teleport value="-1"/>
        <random-depart-offset value="5"/>
    </processing>

    <report>
        <no-warnings value="True"/>
        <no-step-log value="True"/>
    </report>

    <emissions>
        <device.emissions.probability value="1"/>
    </emissions>

    <battery>
        <device.battery.probability value="1"/>
    </battery>

    <traci_server>
        <remote-port value="32903"/>
    </traci_server>

    <gui_only>
        <quit-on-end value="True"/>
        <start value="False"/>
    </gui_only>

</configuration>
-->

<tripinfos xmlns:xsi="http://www.w3.org/2001/XMLSchema-instance" xsi:noNamespaceSchemaLocation="http://sumo.dlr.de/xsd/tripinfo_file.xsd">
    <tripinfo id="vehicle_4" depart="0.80" departLane="road3_0" departPos="4.10" departPosLat="0.00" departSpeed="1.73" departDelay="0.80" arrival="15.60" arrivalLane="-road2_0" arrivalPos="19.96" arrivalPosLat="0.00" arrivalSpeed="12.75" duration="14.80" routeLength="122.77" waitingTime="0.00" waitingCount="0" stopTime="0.00" timeLoss="4.31" rerouteNo="1" devices="tripinfo_vehicle_4 routing_vehicle_4 emissions_vehicle_4 battery_vehicle_4" vType="human" speedFactor="1.03" vaporized="">
        <emissions CO_abs="0" CO2_abs="0" HC_abs="0" PMx_abs="0" NOx_abs="0" fuel_abs="0" electricity_abs="68.260163"/>
    </tripinfo>
    <tripinfo id="vehicle_5" depart="2.40" departLane="road0_0" departPos="4.10" departPosLat="0.00" departSpeed="2.81" departDelay="2.40" arrival="21.20" arrivalLane="-road3_0" arrivalPos="19.96" arrivalPosLat="0.00" arrivalSpeed="10.90" duration="18.80" routeLength="122.77" waitingTime="0.00" waitingCount="0" stopTime="0.00" timeLoss="5.99" rerouteNo="0" devices="tripinfo_vehicle_5 emissions_vehicle_5 battery_vehicle_5" vType="human" speedFactor="0.83" vaporized="">
        <emissions CO_abs="0" CO2_abs="0" HC_abs="0" PMx_abs="0" NOx_abs="0" fuel_abs="0" electricity_abs="48.923345"/>
    </tripinfo>
    <tripinfo id="vehicle_6" depart="4.40" departLane="road0_0" departPos="4.10" departPosLat="0.00" departSpeed="2.05" departDelay="4.40" arrival="22.80" arrivalLane="-road3_0" arrivalPos="19.96" arrivalPosLat="0.00" arrivalSpeed="12.57" duration="18.40" routeLength="122.77" waitingTime="0.00" waitingCount="0" stopTime="0.00" timeLoss="8.06" rerouteNo="0" devices="tripinfo_vehicle_6 emissions_vehicle_6 battery_vehicle_6" vType="human" speedFactor="1.05" vaporized="">
        <emissions CO_abs="0" CO2_abs="0" HC_abs="0" PMx_abs="0" NOx_abs="0" fuel_abs="0" electricity_abs="60.982632"/>
    </tripinfo>
    <tripinfo id="vehicle_1" depart="0.00" departLane="road0_0" departPos="4.10" departPosLat="0.00" departSpeed="5.99" departDelay="0.00" arrival="23.20" arrivalLane="-road2_0" arrivalPos="19.96" arrivalPosLat="0.00" arrivalSpeed="12.73" duration="23.20" routeLength="206.37" waitingTime="0.00" waitingCount="0" stopTime="0.00" timeLoss="5.67" rerouteNo="0" devices="tripinfo_vehicle_1 emissions_vehicle_1 battery_vehicle_1" vType="human" speedFactor="0.94" vaporized="">
        <emissions CO_abs="0" CO2_abs="0" HC_abs="0" PMx_abs="0" NOx_abs="0" fuel_abs="0" electricity_abs="71.421589"/>
    </tripinfo>
    <tripinfo id="vehicle_15" depart="0.80" departLane="road2_0" departPos="4.10" departPosLat="0.00" departSpeed="4.82" departDelay="0.80" arrival="24.40" arrivalLane="-road0_0" arrivalPos="19.96" arrivalPosLat="0.00" arrivalSpeed="11.97" duration="23.60" routeLength="206.37" waitingTime="0.00" waitingCount="0" stopTime="0.00" timeLoss="5.92" rerouteNo="1" devices="tripinfo_vehicle_15 routing_vehicle_15 emissions_vehicle_15 battery_vehicle_15" vType="human" speedFactor="0.93" vaporized="">
        <emissions CO_abs="0" CO2_abs="0" HC_abs="0" PMx_abs="0" NOx_abs="0" fuel_abs="0" electricity_abs="72.278681"/>
    </tripinfo>
    <tripinfo id="vehicle_2" depart="1.20" departLane="road0_0" departPos="4.10" departPosLat="0.00" departSpeed="4.98" departDelay="1.20" arrival="24.80" arrivalLane="-road2_0" arrivalPos="19.96" arrivalPosLat="0.00" arrivalSpeed="11.91" duration="23.60" routeLength="206.37" waitingTime="0.00" waitingCount="0" stopTime="0.00" timeLoss="7.10" rerouteNo="0" devices="tripinfo_vehicle_2 emissions_vehicle_2 battery_vehicle_2" vType="human" speedFactor="1.01" vaporized="">
        <emissions CO_abs="0" CO2_abs="0" HC_abs="0" PMx_abs="0" NOx_abs="0" fuel_abs="0" electricity_abs="70.404567"/>
    </tripinfo>
    <tripinfo id="vehicle_10" depart="2.40" departLane="road3_0" departPos="4.10" departPosLat="0.00" departSpeed="0.20" departDelay="2.40" arrival="25.20" arrivalLane="-road1_0" arrivalPos="19.96" arrivalPosLat="0.00" arrivalSpeed="12.89" duration="22.80" routeLength="206.37" waitingTime="0.00" waitingCount="0" stopTime="0.00" timeLoss="6.27" rerouteNo="1" devices="tripinfo_vehicle_10 routing_vehicle_10 emissions_vehicle_10 battery_vehicle_10" vType="human" speedFactor="1.09" vaporized="">
        <emissions CO_abs="0" CO2_abs="0" HC_abs="0" PMx_abs="0" NOx_abs="0" fuel_abs="0" electricity_abs="88.507157"/>
    </tripinfo>
    <tripinfo id="vehicle_7" depart="0.80" departLane="road1_0" departPos="4.10" departPosLat="0.00" departSpeed="5.55" departDelay="0.80" arrival="25.60" arrivalLane="-road3_0" arrivalPos="19.96" arrivalPosLat="0.00" arrivalSpeed="11.05" duration="24.80" routeLength="206.37" waitingTime="0.00" waitingCount="0" stopTime="0.00" timeLoss="6.30" rerouteNo="1" devices="tripinfo_vehicle_7 routing_vehicle_7 emissions_vehicle_7 battery_vehicle_7" vType="human" speedFactor="0.89" vaporized="">
        <emissions CO_abs="0" CO2_abs="0" HC_abs="0" PMx_abs="0" NOx_abs="0" fuel_abs="0" electricity_abs="61.866378"/>
    </tripinfo>
    <tripinfo id="vehicle_0" depart="0.00" departLane="road3_0" departPos="4.10" departPosLat="0.00" departSpeed="9.87" departDelay="0.00" arrival="26.80" arrivalLane="-road0_0" arrivalPos="19.96" arrivalPosLat="0.00" arrivalSpeed="12.37" duration="26.80" routeLength="289.97" waitingTime="0.00" waitingCount="0" stopTime="0.00" timeLoss="4.59" rerouteNo="1" devices="tripinfo_vehicle_0 routing_vehicle_0 emissions_vehicle_0 battery_vehicle_0" vType="human" speedFactor="1.06" vaporized="">
        <emissions CO_abs="0" CO2_abs="0" HC_abs="0" PMx_abs="0" NOx_abs="0" fuel_abs="0" electricity_abs="80.848768"/>
    </tripinfo>
    <tripinfo id="vehicle_3" depart="0.00" departLane="road1_0" departPos="4.10" departPosLat="0.00" departSpeed="7.97" departDelay="0.00" arrival="27.20" arrivalLane="-road2_0" arrivalPos="19.96" arrivalPosLat="0.00" arrivalSpeed="12.98" duration="27.20" routeLength="289.97" waitingTime="0.00" waitingCount="0" stopTime="0.00" timeLoss="5.00" rerouteNo="1" devices="tripinfo_vehicle_3 routing_vehicle_3 emissions_vehicle_3 battery_vehicle_3" vType="human" speedFactor="1.08" vaporized="">
        <emissions CO_abs="0" CO2_abs="0" HC_abs="0" PMx_abs="0" NOx_abs="0" fuel_abs="0" electricity_abs="93.812157"/>
    </tripinfo>
    <tripinfo id="vehicle_11" depart="4.40" departLane="road3_0" departPos="4.10" departPosLat="0.00" departSpeed="2.82" departDelay="4.40" arrival="27.20" arrivalLane="-road1_0" arrivalPos="19.96" arrivalPosLat="0.00" arrivalSpeed="12.36" duration="22.80" routeLength="206.37" waitingTime="0.00" waitingCount="0" stopTime="0.00" timeLoss="6.40" rerouteNo="1" devices="tripinfo_vehicle_11 routing_vehicle_11 emissions_vehicle_11 battery_vehicle_11" vType="human" speedFactor="1.03" vaporized="">
        <emissions CO_abs="0" CO2_abs="0" HC_abs="0" PMx_abs="0" NOx_abs="0" fuel_abs="0" electricity_abs="82.165910"/>
    </tripinfo>
    <tripinfo id="vehicle_18" depart="6.40" departLane="road3_0" departPos="4.10" departPosLat="0.00" departSpeed="2.28" departDelay="6.40" arrival="29.60" arrivalLane="-road2_0" arrivalPos="19.96" arrivalPosLat="0.00" arrivalSpeed="11.38" duration="23.20" routeLength="122.77" waitingTime="2.00" waitingCount="1" stopTime="0.00" timeLoss="12.32" rerouteNo="1" devices="tripinfo_vehicle_18 routing_vehicle_18 emissions_vehicle_18 battery_vehicle_18" vType="human" speedFactor="0.94" vaporized="">
        <emissions CO_abs="0" CO2_abs="0" HC_abs="0" PMx_abs="0" NOx_abs="0" fuel_abs="0" electricity_abs="50.957696"/>
    </tripinfo>
    <tripinfo id="vehicle_14" depart="0.00" departLane="road2_0" departPos="4.10" departPosLat="0.00" departSpeed="5.70" departDelay="0.00" arrival="30.00" arrivalLane="-road3_0" arrivalPos="19.96" arrivalPosLat="0.00" arrivalSpeed="12.63" duration="30.00" routeLength="289.97" waitingTime="0.00" waitingCount="0" stopTime="0.00" timeLoss="7.79" rerouteNo="1" devices="tripinfo_vehicle_14 routing_vehicle_14 emissions_vehicle_14 battery_vehicle_14" vType="human" speedFactor="0.99" vaporized="">
        <emissions CO_abs="0" CO2_abs="0" HC_abs="0" PMx_abs="0" NOx_abs="0" fuel_abs="0" electricity_abs="92.405388"/>
    </tripinfo>
    <tripinfo id="vehicle_12" depart="7.20" departLane="road1_0" departPos="4.10" departPosLat="0.00" departSpeed="1.66" departDelay="7.20" arrival="31.20" arrivalLane="-road0_0" arrivalPos="19.96" arrivalPosLat="0.00" arrivalSpeed="12.21" duration="24.00" routeLength="122.77" waitingTime="2.40" waitingCount="1" stopTime="0.00" timeLoss="13.62" rerouteNo="1" devices="tripinfo_vehicle_12 routing_vehicle_12 emissions_vehicle_12 battery_vehicle_12" vType="human" speedFactor="1.05" vaporized="">
        <emissions CO_abs="0" CO2_abs="0" HC_abs="0" PMx_abs="0" NOx_abs="0" fuel_abs="0" electricity_abs="56.904913"/>
    </tripinfo>
    <tripinfo id="vehicle_26" depart="9.60" departLane="road0_0" departPos="4.10" departPosLat="0.00" departSpeed="2.39" departDelay="9.60" arrival="32.80" arrivalLane="-road3_0" arrivalPos="19.96" arrivalPosLat="0.00" arrivalSpeed="12.20" duration="23.20" routeLength="122.77" waitingTime="1.20" waitingCount="1" stopTime="0.00" timeLoss="12.02" rerouteNo="0" devices="tripinfo_vehicle_26 emissions_vehicle_26 battery_vehicle_26" vType="human" speedFactor="0.92" vaporized="">
        <emissions CO_abs="0" CO2_abs="0" HC_abs="0" PMx_abs="0" NOx_abs="0" fuel_abs="0" electricity_abs="55.036117"/>
    </tripinfo>
    <tripinfo id="vehicle_8" depart="2.40" departLane="road1_0" departPos="4.10" departPosLat="0.00" departSpeed="1.43" departDelay="2.40" arrival="33.20" arrivalLane="-road2_0" arrivalPos="19.96" arrivalPosLat="0.00" arrivalSpeed="12.10" duration="30.80" routeLength="289.97" waitingTime="0.00" waitingCount="0" stopTime="0.00" timeLoss="7.03" rerouteNo="1" devices="tripinfo_vehicle_8 routing_vehicle_8 emissions_vehicle_8 battery_vehicle_8" vType="human" speedFactor="0.94" vaporized="">
        <emissions CO_abs="0" CO2_abs="0" HC_abs="0" PMx_abs="0" NOx_abs="0" fuel_abs="0" electricity_abs="95.618327"/>
    </tripinfo>
    <tripinfo id="vehicle_33" depart="16.40" departLane="road1_0" departPos="4.10" departPosLat="0.00" departSpeed="1.05" departDelay="16.40" arrival="35.20" arrivalLane="-road0_0" arrivalPos="19.96" arrivalPosLat="0.00" arrivalSpeed="12.18" duration="18.80" routeLength="122.77" waitingTime="0.00" waitingCount="0" stopTime="0.00" timeLoss="8.71" rerouteNo="1" devices="tripinfo_vehicle_33 routing_vehicle_33 emissions_vehicle_33 battery_vehicle_33" vType="human" speedFactor="1.17" vaporized="">
        <emissions CO_abs="0" CO2_abs="0" HC_abs="0" PMx_abs="0" NOx_abs="0" fuel_abs="0" electricity_abs="59.281744"/>
    </tripinfo>
    <tripinfo id="vehicle_9" depart="4.80" departLane="road1_0" departPos="4.10" departPosLat="0.00" departSpeed="2.79" departDelay="4.80" arrival="38.40" arrivalLane="-road3_0" arrivalPos="19.96" arrivalPosLat="0.00" arrivalSpeed="11.67" duration="33.60" routeLength="206.37" waitingTime="4.00" waitingCount="1" stopTime="0.00" timeLoss="14.49" rerouteNo="1" devices="tripinfo_vehicle_9 routing_vehicle_9 emissions_vehicle_9 battery_vehicle_9" vType="human" speedFactor="0.86" vaporized="">
        <emissions CO_abs="0" CO2_abs="0" HC_abs="0" PMx_abs="0" NOx_abs="0" fuel_abs="0" electricity_abs="67.901021"/>
    </tripinfo>
    <tripinfo id="vehicle_21" depart="9.20" departLane="road1_0" departPos="4.10" departPosLat="0.00" departSpeed="1.17" departDelay="9.20" arrival="41.20" arrivalLane="-road3_0" arrivalPos="19.96" arrivalPosLat="0.00" arrivalSpeed="12.70" duration="32.00" routeLength="206.37" waitingTime="0.80" waitingCount="1" stopTime="0.00" timeLoss="15.51" rerouteNo="1" devices="tripinfo_vehicle_21 routing_vehicle_21 emissions_vehicle_21 battery_vehicle_21" vType="human" speedFactor="1.01" vaporized="">
        <emissions CO_abs="0" CO2_abs="0" HC_abs="0" PMx_abs="0" NOx_abs="0" fuel_abs="0" electricity_abs="80.795875"/>
    </tripinfo>
    <tripinfo id="vehicle_28" depart="12.00" departLane="road0_0" departPos="4.10" departPosLat="0.00" departSpeed="0.18" departDelay="12.00" arrival="42.00" arrivalLane="-road2_0" arrivalPos="19.96" arrivalPosLat="0.00" arrivalSpeed="12.27" duration="30.00" routeLength="206.37" waitingTime="0.40" waitingCount="1" stopTime="0.00" timeLoss="13.88" rerouteNo="0" devices="tripinfo_vehicle_28 emissions_vehicle_28 battery_vehicle_28" vType="human" speedFactor="1.13" vaporized="">
        <emissions CO_abs="0" CO2_abs="0" HC_abs="0" PMx_abs="0" NOx_abs="0" fuel_abs="0" electricity_abs="80.102566"/>
    </tripinfo>
    <tripinfo id="vehicle_13" depart="6.80" departLane="road0_0" departPos="4.10" departPosLat="0.00" departSpeed="1.17" departDelay="6.80" arrival="42.40" arrivalLane="-road1_0" arrivalPos="19.96" arrivalPosLat="0.00" arrivalSpeed="12.16" duration="35.60" routeLength="289.97" waitingTime="2.40" waitingCount="1" stopTime="0.00" timeLoss="13.60" rerouteNo="0" devices="tripinfo_vehicle_13 emissions_vehicle_13 battery_vehicle_13" vType="human" speedFactor="1.12" vaporized="">
        <emissions CO_abs="0" CO2_abs="0" HC_abs="0" PMx_abs="0" NOx_abs="0" fuel_abs="0" electricity_abs="101.806891"/>
    </tripinfo>
    <tripinfo id="vehicle_19" depart="8.40" departLane="road3_0" departPos="4.10" departPosLat="0.00" departSpeed="2.68" departDelay="8.40" arrival="42.40" arrivalLane="-road0_0" arrivalPos="19.96" arrivalPosLat="0.00" arrivalSpeed="11.62" duration="34.00" routeLength="289.97" waitingTime="1.20" waitingCount="1" stopTime="0.00" timeLoss="11.86" rerouteNo="1" devices="tripinfo_vehicle_19 routing_vehicle_19 emissions_vehicle_19 battery_vehicle_19" vType="human" speedFactor="1.16" vaporized="">
        <emissions CO_abs="0" CO2_abs="0" HC_abs="0" PMx_abs="0" NOx_abs="0" fuel_abs="0" electricity_abs="97.874365"/>
    </tripinfo>
    <tripinfo id="vehicle_16" depart="2.00" departLane="road2_0" departPos="4.10" departPosLat="0.00" departSpeed="1.95" departDelay="2.00" arrival="44.80" arrivalLane="-road0_0" arrivalPos="19.96" arrivalPosLat="0.00" arrivalSpeed="11.19" duration="42.80" routeLength="206.37" waitingTime="16.40" waitingCount="1" stopTime="0.00" timeLoss="24.29" rerouteNo="1" devices="tripinfo_vehicle_16 routing_vehicle_16 emissions_vehicle_16 battery_vehicle_16" vType="human" speedFactor="0.88" vaporized="">
        <emissions CO_abs="0" CO2_abs="0" HC_abs="0" PMx_abs="0" NOx_abs="0" fuel_abs="0" electricity_abs="72.141478"/>
    </tripinfo>
    <tripinfo id="vehicle_22" depart="16.40" departLane="road3_0" departPos="4.10" departPosLat="0.00" departSpeed="1.18" departDelay="16.40" arrival="46.80" arrivalLane="-road2_0" arrivalPos="19.96" arrivalPosLat="0.00" arrivalSpeed="12.66" duration="30.40" routeLength="122.77" waitingTime="11.60" waitingCount="1" stopTime="0.00" timeLoss="19.51" rerouteNo="1" devices="tripinfo_vehicle_22 routing_vehicle_22 emissions_vehicle_22 battery_vehicle_22" vType="human" speedFactor="0.97" vaporized="">
        <emissions CO_abs="0" CO2_abs="0" HC_abs="0" PMx_abs="0" NOx_abs="0" fuel_abs="0" electricity_abs="65.454448"/>
    </tripinfo>
</tripinfos>
