<?xml version="1.0" encoding="UTF-8"?>

<!-- generated on 2024-06-26 09:58:59 by Eclipse SUMO sumo Version v1_20_0+0085-e155ab8699b
<configuration xmlns:xsi="http://www.w3.org/2001/XMLSchema-instance" xsi:noNamespaceSchemaLocation="http://sumo.dlr.de/xsd/sumoConfiguration.xsd">

    <input>
        <net-file value="networks/roundabout.net.xml"/>
        <route-files value="networks/routes1.rou.xml"/>
    </input>

    <output>
        <output-prefix value="92-"/>
        <battery-output.precision value="4"/>
        <tripinfo-output value="networks/output_data/output_folder/tripinfo-output.xml"/>
    </output>

    <time>
        <begin value="0"/>
        <step-length value="0.4"/>
    </time>

    <processing>
        <step-method.ballistic value="true"/>
        <lateral-resolution value="3.2"/>
        <collision.action value="warn"/>
        <collision.mingap-factor value="0"/>
        <time-to-teleport value="-1"/>
        <random-depart-offset value="5"/>
    </processing>

    <report>
        <no-warnings value="True"/>
        <no-step-log value="True"/>
    </report>

    <emissions>
        <device.emissions.probability value="1"/>
    </emissions>

    <battery>
        <device.battery.probability value="1"/>
    </battery>

    <traci_server>
        <remote-port value="48821"/>
    </traci_server>

    <gui_only>
        <quit-on-end value="True"/>
        <start value="False"/>
    </gui_only>

</configuration>
-->

<tripinfos xmlns:xsi="http://www.w3.org/2001/XMLSchema-instance" xsi:noNamespaceSchemaLocation="http://sumo.dlr.de/xsd/tripinfo_file.xsd">
    <tripinfo id="vehicle_3" depart="0.00" departLane="road0_0" departPos="4.10" departPosLat="0.00" departSpeed="7.97" departDelay="0.00" arrival="14.00" arrivalLane="-road3_0" arrivalPos="19.96" arrivalPosLat="0.00" arrivalSpeed="11.27" duration="14.00" routeLength="122.77" waitingTime="0.00" waitingCount="0" stopTime="0.00" timeLoss="3.88" rerouteNo="0" devices="tripinfo_vehicle_3 emissions_vehicle_3 battery_vehicle_3" vType="human" speedFactor="1.08" vaporized="">
        <emissions CO_abs="0" CO2_abs="0" HC_abs="0" PMx_abs="0" NOx_abs="0" fuel_abs="0" electricity_abs="42.740763"/>
    </tripinfo>
    <tripinfo id="vehicle_7" depart="0.00" departLane="road3_0" departPos="4.10" departPosLat="0.00" departSpeed="5.10" departDelay="0.00" arrival="15.60" arrivalLane="-road2_0" arrivalPos="19.96" arrivalPosLat="0.00" arrivalSpeed="11.51" duration="15.60" routeLength="122.77" waitingTime="0.00" waitingCount="0" stopTime="0.00" timeLoss="4.08" rerouteNo="1" devices="tripinfo_vehicle_7 routing_vehicle_7 emissions_vehicle_7 battery_vehicle_7" vType="human" speedFactor="0.89" vaporized="">
        <emissions CO_abs="0" CO2_abs="0" HC_abs="0" PMx_abs="0" NOx_abs="0" fuel_abs="0" electricity_abs="49.198472"/>
    </tripinfo>
    <tripinfo id="vehicle_13" depart="2.40" departLane="road2_0" departPos="4.10" departPosLat="0.00" departSpeed="4.17" departDelay="2.40" arrival="18.00" arrivalLane="-road1_0" arrivalPos="19.96" arrivalPosLat="0.00" arrivalSpeed="13.00" duration="15.60" routeLength="122.77" waitingTime="0.00" waitingCount="0" stopTime="0.00" timeLoss="5.38" rerouteNo="1" devices="tripinfo_vehicle_13 routing_vehicle_13 emissions_vehicle_13 battery_vehicle_13" vType="human" speedFactor="1.12" vaporized="">
        <emissions CO_abs="0" CO2_abs="0" HC_abs="0" PMx_abs="0" NOx_abs="0" fuel_abs="0" electricity_abs="65.339950"/>
    </tripinfo>
    <tripinfo id="vehicle_9" depart="2.40" departLane="road0_0" departPos="4.10" departPosLat="0.00" departSpeed="2.30" departDelay="2.40" arrival="20.00" arrivalLane="-road3_0" arrivalPos="19.96" arrivalPosLat="0.00" arrivalSpeed="11.77" duration="17.60" routeLength="122.77" waitingTime="0.00" waitingCount="0" stopTime="0.00" timeLoss="5.47" rerouteNo="0" devices="tripinfo_vehicle_9 emissions_vehicle_9 battery_vehicle_9" vType="human" speedFactor="0.86" vaporized="">
        <emissions CO_abs="0" CO2_abs="0" HC_abs="0" PMx_abs="0" NOx_abs="0" fuel_abs="0" electricity_abs="55.349738"/>
    </tripinfo>
    <tripinfo id="vehicle_2" depart="0.00" departLane="road2_0" departPos="4.10" departPosLat="0.00" departSpeed="10.54" departDelay="0.00" arrival="21.20" arrivalLane="-road0_0" arrivalPos="19.96" arrivalPosLat="0.00" arrivalSpeed="12.71" duration="21.20" routeLength="206.37" waitingTime="0.00" waitingCount="0" stopTime="0.00" timeLoss="4.59" rerouteNo="1" devices="tripinfo_vehicle_2 routing_vehicle_2 emissions_vehicle_2 battery_vehicle_2" vType="human" speedFactor="1.01" vaporized="">
        <emissions CO_abs="0" CO2_abs="0" HC_abs="0" PMx_abs="0" NOx_abs="0" fuel_abs="0" electricity_abs="58.336819"/>
    </tripinfo>
    <tripinfo id="vehicle_11" depart="4.80" departLane="road0_0" departPos="4.10" departPosLat="0.00" departSpeed="3.75" departDelay="4.80" arrival="22.00" arrivalLane="-road3_0" arrivalPos="19.96" arrivalPosLat="0.00" arrivalSpeed="12.73" duration="17.20" routeLength="122.77" waitingTime="0.00" waitingCount="0" stopTime="0.00" timeLoss="6.78" rerouteNo="0" devices="tripinfo_vehicle_11 emissions_vehicle_11 battery_vehicle_11" vType="human" speedFactor="1.03" vaporized="">
        <emissions CO_abs="0" CO2_abs="0" HC_abs="0" PMx_abs="0" NOx_abs="0" fuel_abs="0" electricity_abs="62.269955"/>
    </tripinfo>
    <tripinfo id="vehicle_0" depart="0.00" departLane="road1_0" departPos="4.10" departPosLat="0.00" departSpeed="9.87" departDelay="0.00" arrival="27.60" arrivalLane="-road2_0" arrivalPos="19.96" arrivalPosLat="0.00" arrivalSpeed="12.18" duration="27.60" routeLength="289.97" waitingTime="0.00" waitingCount="0" stopTime="0.00" timeLoss="5.37" rerouteNo="1" devices="tripinfo_vehicle_0 routing_vehicle_0 emissions_vehicle_0 battery_vehicle_0" vType="human" speedFactor="1.06" vaporized="">
        <emissions CO_abs="0" CO2_abs="0" HC_abs="0" PMx_abs="0" NOx_abs="0" fuel_abs="0" electricity_abs="77.843095"/>
    </tripinfo>
    <tripinfo id="vehicle_30" depart="11.20" departLane="road0_0" departPos="4.10" departPosLat="0.00" departSpeed="1.65" departDelay="11.20" arrival="28.00" arrivalLane="-road3_0" arrivalPos="19.96" arrivalPosLat="0.00" arrivalSpeed="13.84" duration="16.80" routeLength="122.77" waitingTime="0.00" waitingCount="0" stopTime="0.00" timeLoss="6.47" rerouteNo="0" devices="tripinfo_vehicle_30 emissions_vehicle_30 battery_vehicle_30" vType="human" speedFactor="1.18" vaporized="">
        <emissions CO_abs="0" CO2_abs="0" HC_abs="0" PMx_abs="0" NOx_abs="0" fuel_abs="0" electricity_abs="73.080689"/>
    </tripinfo>
    <tripinfo id="vehicle_6" depart="0.80" departLane="road0_0" departPos="4.10" departPosLat="0.00" departSpeed="1.96" departDelay="0.80" arrival="30.00" arrivalLane="-road1_0" arrivalPos="19.96" arrivalPosLat="0.00" arrivalSpeed="12.43" duration="29.20" routeLength="289.97" waitingTime="0.00" waitingCount="0" stopTime="0.00" timeLoss="6.66" rerouteNo="0" devices="tripinfo_vehicle_6 emissions_vehicle_6 battery_vehicle_6" vType="human" speedFactor="1.05" vaporized="">
        <emissions CO_abs="0" CO2_abs="0" HC_abs="0" PMx_abs="0" NOx_abs="0" fuel_abs="0" electricity_abs="103.392462"/>
    </tripinfo>
    <tripinfo id="vehicle_1" depart="0.80" departLane="road1_0" departPos="4.10" departPosLat="0.00" departSpeed="5.55" departDelay="0.80" arrival="31.60" arrivalLane="-road2_0" arrivalPos="19.96" arrivalPosLat="0.00" arrivalSpeed="11.29" duration="30.80" routeLength="289.97" waitingTime="0.00" waitingCount="0" stopTime="0.00" timeLoss="7.27" rerouteNo="1" devices="tripinfo_vehicle_1 routing_vehicle_1 emissions_vehicle_1 battery_vehicle_1" vType="human" speedFactor="0.94" vaporized="">
        <emissions CO_abs="0" CO2_abs="0" HC_abs="0" PMx_abs="0" NOx_abs="0" fuel_abs="0" electricity_abs="81.638781"/>
    </tripinfo>
    <tripinfo id="vehicle_4" depart="0.80" departLane="road2_0" departPos="4.10" departPosLat="0.00" departSpeed="1.73" departDelay="0.80" arrival="31.60" arrivalLane="-road3_0" arrivalPos="19.96" arrivalPosLat="0.00" arrivalSpeed="12.36" duration="30.80" routeLength="289.97" waitingTime="0.00" waitingCount="0" stopTime="0.00" timeLoss="8.22" rerouteNo="1" devices="tripinfo_vehicle_4 routing_vehicle_4 emissions_vehicle_4 battery_vehicle_4" vType="human" speedFactor="1.03" vaporized="">
        <emissions CO_abs="0" CO2_abs="0" HC_abs="0" PMx_abs="0" NOx_abs="0" fuel_abs="0" electricity_abs="99.558396"/>
    </tripinfo>
    <tripinfo id="vehicle_22" depart="7.60" departLane="road3_0" departPos="4.10" departPosLat="0.00" departSpeed="2.60" departDelay="7.60" arrival="32.00" arrivalLane="-road1_0" arrivalPos="19.96" arrivalPosLat="0.00" arrivalSpeed="11.78" duration="24.40" routeLength="206.37" waitingTime="0.00" waitingCount="0" stopTime="0.00" timeLoss="7.56" rerouteNo="1" devices="tripinfo_vehicle_22 routing_vehicle_22 emissions_vehicle_22 battery_vehicle_22" vType="human" speedFactor="0.97" vaporized="">
        <emissions CO_abs="0" CO2_abs="0" HC_abs="0" PMx_abs="0" NOx_abs="0" fuel_abs="0" electricity_abs="74.060289"/>
    </tripinfo>
    <tripinfo id="vehicle_8" depart="1.20" departLane="road3_0" departPos="4.10" departPosLat="0.00" departSpeed="5.35" departDelay="1.20" arrival="32.80" arrivalLane="-road0_0" arrivalPos="19.96" arrivalPosLat="0.00" arrivalSpeed="11.57" duration="31.60" routeLength="289.97" waitingTime="0.00" waitingCount="0" stopTime="0.00" timeLoss="8.01" rerouteNo="1" devices="tripinfo_vehicle_8 routing_vehicle_8 emissions_vehicle_8 battery_vehicle_8" vType="human" speedFactor="0.94" vaporized="">
        <emissions CO_abs="0" CO2_abs="0" HC_abs="0" PMx_abs="0" NOx_abs="0" fuel_abs="0" electricity_abs="86.546364"/>
    </tripinfo>
    <tripinfo id="vehicle_15" depart="4.00" departLane="road2_0" departPos="4.10" departPosLat="0.00" departSpeed="3.17" departDelay="4.00" arrival="35.20" arrivalLane="-road3_0" arrivalPos="19.96" arrivalPosLat="0.00" arrivalSpeed="11.61" duration="31.20" routeLength="289.97" waitingTime="0.00" waitingCount="0" stopTime="0.00" timeLoss="7.33" rerouteNo="1" devices="tripinfo_vehicle_15 routing_vehicle_15 emissions_vehicle_15 battery_vehicle_15" vType="human" speedFactor="0.93" vaporized="">
        <emissions CO_abs="0" CO2_abs="0" HC_abs="0" PMx_abs="0" NOx_abs="0" fuel_abs="0" electricity_abs="91.710811"/>
    </tripinfo>
    <tripinfo id="vehicle_17" depart="2.80" departLane="road3_0" departPos="4.10" departPosLat="0.00" departSpeed="2.54" departDelay="2.80" arrival="35.20" arrivalLane="-road0_0" arrivalPos="19.96" arrivalPosLat="0.00" arrivalSpeed="11.24" duration="32.40" routeLength="289.97" waitingTime="0.00" waitingCount="0" stopTime="0.00" timeLoss="8.80" rerouteNo="1" devices="tripinfo_vehicle_17 routing_vehicle_17 emissions_vehicle_17 battery_vehicle_17" vType="human" speedFactor="0.94" vaporized="">
        <emissions CO_abs="0" CO2_abs="0" HC_abs="0" PMx_abs="0" NOx_abs="0" fuel_abs="0" electricity_abs="88.632162"/>
    </tripinfo>
    <tripinfo id="vehicle_26" depart="9.60" departLane="road3_0" departPos="4.10" departPosLat="0.00" departSpeed="0.17" departDelay="9.60" arrival="35.20" arrivalLane="-road1_0" arrivalPos="19.96" arrivalPosLat="0.00" arrivalSpeed="11.98" duration="25.60" routeLength="206.37" waitingTime="0.00" waitingCount="0" stopTime="0.00" timeLoss="7.62" rerouteNo="1" devices="tripinfo_vehicle_26 routing_vehicle_26 emissions_vehicle_26 battery_vehicle_26" vType="human" speedFactor="0.92" vaporized="">
        <emissions CO_abs="0" CO2_abs="0" HC_abs="0" PMx_abs="0" NOx_abs="0" fuel_abs="0" electricity_abs="75.142143"/>
    </tripinfo>
    <tripinfo id="vehicle_20" depart="4.80" departLane="road3_0" departPos="4.10" departPosLat="0.00" departSpeed="1.47" departDelay="4.80" arrival="37.20" arrivalLane="-road0_0" arrivalPos="19.96" arrivalPosLat="0.00" arrivalSpeed="12.22" duration="32.40" routeLength="289.97" waitingTime="0.00" waitingCount="0" stopTime="0.00" timeLoss="9.77" rerouteNo="1" devices="tripinfo_vehicle_20 routing_vehicle_20 emissions_vehicle_20 battery_vehicle_20" vType="human" speedFactor="1.02" vaporized="">
        <emissions CO_abs="0" CO2_abs="0" HC_abs="0" PMx_abs="0" NOx_abs="0" fuel_abs="0" electricity_abs="98.195807"/>
    </tripinfo>
    <tripinfo id="vehicle_16" depart="6.00" departLane="road2_0" departPos="4.10" departPosLat="0.00" departSpeed="1.37" departDelay="6.00" arrival="38.40" arrivalLane="-road3_0" arrivalPos="19.96" arrivalPosLat="0.00" arrivalSpeed="10.47" duration="32.40" routeLength="289.97" waitingTime="0.00" waitingCount="0" stopTime="0.00" timeLoss="7.12" rerouteNo="1" devices="tripinfo_vehicle_16 routing_vehicle_16 emissions_vehicle_16 battery_vehicle_16" vType="human" speedFactor="0.88" vaporized="">
        <emissions CO_abs="0" CO2_abs="0" HC_abs="0" PMx_abs="0" NOx_abs="0" fuel_abs="0" electricity_abs="82.663949"/>
    </tripinfo>
    <tripinfo id="vehicle_29" depart="12.00" departLane="road3_0" departPos="4.10" departPosLat="0.00" departSpeed="3.18" departDelay="12.00" arrival="38.40" arrivalLane="-road1_0" arrivalPos="19.96" arrivalPosLat="0.00" arrivalSpeed="12.48" duration="26.40" routeLength="206.37" waitingTime="0.00" waitingCount="0" stopTime="0.00" timeLoss="8.82" rerouteNo="1" devices="tripinfo_vehicle_29 routing_vehicle_29 emissions_vehicle_29 battery_vehicle_29" vType="human" speedFactor="0.93" vaporized="">
        <emissions CO_abs="0" CO2_abs="0" HC_abs="0" PMx_abs="0" NOx_abs="0" fuel_abs="0" electricity_abs="73.994180"/>
    </tripinfo>
    <tripinfo id="vehicle_5" depart="2.00" departLane="road1_0" departPos="4.10" departPosLat="0.00" departSpeed="2.36" departDelay="2.00" arrival="39.20" arrivalLane="-road2_0" arrivalPos="19.96" arrivalPosLat="0.00" arrivalSpeed="10.96" duration="37.20" routeLength="289.97" waitingTime="0.00" waitingCount="0" stopTime="0.00" timeLoss="10.44" rerouteNo="1" devices="tripinfo_vehicle_5 routing_vehicle_5 emissions_vehicle_5 battery_vehicle_5" vType="human" speedFactor="0.83" vaporized="">
        <emissions CO_abs="0" CO2_abs="0" HC_abs="0" PMx_abs="0" NOx_abs="0" fuel_abs="0" electricity_abs="78.200044"/>
    </tripinfo>
    <tripinfo id="vehicle_32" depart="14.00" departLane="road0_0" departPos="4.10" departPosLat="0.00" departSpeed="2.36" departDelay="14.00" arrival="40.40" arrivalLane="-road3_0" arrivalPos="19.96" arrivalPosLat="0.00" arrivalSpeed="13.29" duration="26.40" routeLength="122.77" waitingTime="5.60" waitingCount="1" stopTime="0.00" timeLoss="16.04" rerouteNo="0" devices="tripinfo_vehicle_32 emissions_vehicle_32 battery_vehicle_32" vType="human" speedFactor="1.01" vaporized="">
        <emissions CO_abs="0" CO2_abs="0" HC_abs="0" PMx_abs="0" NOx_abs="0" fuel_abs="0" electricity_abs="65.534141"/>
    </tripinfo>
    <tripinfo id="vehicle_33" depart="14.00" departLane="road3_0" departPos="4.10" departPosLat="0.00" departSpeed="2.80" departDelay="14.00" arrival="41.20" arrivalLane="-road2_0" arrivalPos="19.96" arrivalPosLat="0.00" arrivalSpeed="13.77" duration="27.20" routeLength="122.77" waitingTime="4.00" waitingCount="1" stopTime="0.00" timeLoss="17.02" rerouteNo="1" devices="tripinfo_vehicle_33 routing_vehicle_33 emissions_vehicle_33 battery_vehicle_33" vType="human" speedFactor="1.17" vaporized="">
        <emissions CO_abs="0" CO2_abs="0" HC_abs="0" PMx_abs="0" NOx_abs="0" fuel_abs="0" electricity_abs="68.996125"/>
    </tripinfo>
    <tripinfo id="vehicle_21" depart="6.80" departLane="road0_0" departPos="4.10" departPosLat="0.00" departSpeed="2.79" departDelay="6.80" arrival="41.60" arrivalLane="-road1_0" arrivalPos="19.96" arrivalPosLat="0.00" arrivalSpeed="12.10" duration="34.80" routeLength="289.97" waitingTime="0.00" waitingCount="0" stopTime="0.00" timeLoss="12.30" rerouteNo="0" devices="tripinfo_vehicle_21 emissions_vehicle_21 battery_vehicle_21" vType="human" speedFactor="1.01" vaporized="">
        <emissions CO_abs="0" CO2_abs="0" HC_abs="0" PMx_abs="0" NOx_abs="0" fuel_abs="0" electricity_abs="91.425952"/>
    </tripinfo>
    <tripinfo id="vehicle_28" depart="8.80" departLane="road0_0" departPos="4.10" departPosLat="0.00" departSpeed="1.73" departDelay="8.80" arrival="43.60" arrivalLane="-road1_0" arrivalPos="19.96" arrivalPosLat="0.00" arrivalSpeed="12.28" duration="34.80" routeLength="289.97" waitingTime="0.00" waitingCount="0" stopTime="0.00" timeLoss="12.73" rerouteNo="0" devices="tripinfo_vehicle_28 emissions_vehicle_28 battery_vehicle_28" vType="human" speedFactor="1.13" vaporized="">
        <emissions CO_abs="0" CO2_abs="0" HC_abs="0" PMx_abs="0" NOx_abs="0" fuel_abs="0" electricity_abs="93.634684"/>
    </tripinfo>
</tripinfos>
