<?xml version="1.0" encoding="UTF-8"?>

<!-- generated on 2025-05-29 08:52:38 by Eclipse SUMO sumo Version v1_20_0+0085-e155ab8699b
<configuration xmlns:xsi="http://www.w3.org/2001/XMLSchema-instance" xsi:noNamespaceSchemaLocation="http://sumo.dlr.de/xsd/sumoConfiguration.xsd">

    <input>
        <net-file value="../networks/roundabout.net.xml"/>
        <route-files value="../networks/routes1.rou.xml"/>
    </input>

    <output>
        <output-prefix value="100-"/>
        <battery-output.precision value="4"/>
        <tripinfo-output value="../networks/output_data/output_kan/tripinfo/tripinfo-output.xml"/>
        <collision-output value="../networks/output_data/output_kan/collision/collision-output.xml"/>
    </output>

    <time>
        <begin value="0"/>
        <step-length value="0.4"/>
    </time>

    <processing>
        <step-method.ballistic value="true"/>
        <lateral-resolution value="3.2"/>
        <collision.action value="warn"/>
        <collision.mingap-factor value="0"/>
        <time-to-teleport value="-1"/>
        <random-depart-offset value="5"/>
    </processing>

    <report>
        <no-warnings value="True"/>
        <no-step-log value="True"/>
    </report>

    <emissions>
        <device.emissions.probability value="1"/>
    </emissions>

    <battery>
        <device.battery.probability value="1"/>
    </battery>

    <traci_server>
        <remote-port value="54103"/>
    </traci_server>

    <gui_only>
        <quit-on-end value="True"/>
        <start value="True"/>
    </gui_only>

</configuration>
-->

<tripinfos xmlns:xsi="http://www.w3.org/2001/XMLSchema-instance" xsi:noNamespaceSchemaLocation="http://sumo.dlr.de/xsd/tripinfo_file.xsd">
    <tripinfo id="vehicle_25" depart="1.20" departLane="road1_0" departPos="4.10" departPosLat="0.00" departSpeed="9.75" departDelay="0.21" arrival="16.80" arrivalLane="-road0_0" arrivalPos="19.96" arrivalPosLat="0.00" arrivalSpeed="11.41" duration="15.60" routeLength="122.77" waitingTime="0.00" waitingCount="0" stopTime="0.00" timeLoss="3.90" rerouteNo="1" devices="tripinfo_vehicle_25 routing_vehicle_25 emissions_vehicle_25 battery_vehicle_25" vType="human" speedFactor="0.87" vaporized="">
        <emissions CO_abs="0" CO2_abs="0" HC_abs="0" PMx_abs="0" NOx_abs="0" fuel_abs="0" electricity_abs="31.391160"/>
    </tripinfo>
    <tripinfo id="vehicle_12" depart="2.00" departLane="road3_0" departPos="4.10" departPosLat="0.00" departSpeed="3.63" departDelay="0.25" arrival="17.60" arrivalLane="-road2_0" arrivalPos="19.96" arrivalPosLat="0.00" arrivalSpeed="12.80" duration="15.60" routeLength="122.77" waitingTime="0.00" waitingCount="0" stopTime="0.00" timeLoss="5.08" rerouteNo="1" devices="tripinfo_vehicle_12 routing_vehicle_12 emissions_vehicle_12 battery_vehicle_12" vType="human" speedFactor="1.05" vaporized="">
        <emissions CO_abs="0" CO2_abs="0" HC_abs="0" PMx_abs="0" NOx_abs="0" fuel_abs="0" electricity_abs="64.826254"/>
    </tripinfo>
    <tripinfo id="vehicle_5" depart="1.20" departLane="road2_0" departPos="4.10" departPosLat="0.00" departSpeed="8.20" departDelay="0.08" arrival="18.00" arrivalLane="-road1_0" arrivalPos="19.96" arrivalPosLat="0.00" arrivalSpeed="11.32" duration="16.80" routeLength="122.77" waitingTime="0.00" waitingCount="0" stopTime="0.00" timeLoss="4.52" rerouteNo="1" devices="tripinfo_vehicle_5 routing_vehicle_5 emissions_vehicle_5 battery_vehicle_5" vType="human" speedFactor="0.83" vaporized="">
        <emissions CO_abs="0" CO2_abs="0" HC_abs="0" PMx_abs="0" NOx_abs="0" fuel_abs="0" electricity_abs="36.401919"/>
    </tripinfo>
    <tripinfo id="vehicle_79" depart="4.00" departLane="road0_0" departPos="4.10" departPosLat="0.00" departSpeed="1.56" departDelay="0.20" arrival="18.80" arrivalLane="-road3_0" arrivalPos="19.96" arrivalPosLat="0.00" arrivalSpeed="11.30" duration="14.80" routeLength="122.77" waitingTime="0.00" waitingCount="0" stopTime="0.00" timeLoss="4.58" rerouteNo="0" devices="tripinfo_vehicle_79 emissions_vehicle_79 battery_vehicle_79" vType="human" speedFactor="1.09" vaporized="">
        <emissions CO_abs="0" CO2_abs="0" HC_abs="0" PMx_abs="0" NOx_abs="0" fuel_abs="0" electricity_abs="57.703883"/>
    </tripinfo>
    <tripinfo id="vehicle_76" depart="2.00" departLane="road1_0" departPos="4.10" departPosLat="0.00" departSpeed="5.40" departDelay="0.66" arrival="19.20" arrivalLane="-road0_0" arrivalPos="19.96" arrivalPosLat="0.00" arrivalSpeed="12.27" duration="17.20" routeLength="122.77" waitingTime="0.00" waitingCount="0" stopTime="0.00" timeLoss="6.88" rerouteNo="1" devices="tripinfo_vehicle_76 routing_vehicle_76 emissions_vehicle_76 battery_vehicle_76" vType="human" speedFactor="1.03" vaporized="">
        <emissions CO_abs="0" CO2_abs="0" HC_abs="0" PMx_abs="0" NOx_abs="0" fuel_abs="0" electricity_abs="52.989422"/>
    </tripinfo>
    <tripinfo id="vehicle_87" depart="5.60" departLane="road2_0" departPos="4.10" departPosLat="0.00" departSpeed="3.73" departDelay="0.29" arrival="20.80" arrivalLane="-road1_0" arrivalPos="19.96" arrivalPosLat="0.00" arrivalSpeed="13.56" duration="15.20" routeLength="122.77" waitingTime="0.00" waitingCount="0" stopTime="0.00" timeLoss="4.77" rerouteNo="1" devices="tripinfo_vehicle_87 routing_vehicle_87 emissions_vehicle_87 battery_vehicle_87" vType="human" speedFactor="1.04" vaporized="">
        <emissions CO_abs="0" CO2_abs="0" HC_abs="0" PMx_abs="0" NOx_abs="0" fuel_abs="0" electricity_abs="68.984790"/>
    </tripinfo>
    <tripinfo id="vehicle_26" depart="3.60" departLane="road3_0" departPos="4.10" departPosLat="0.00" departSpeed="1.52" departDelay="1.15" arrival="21.20" arrivalLane="-road2_0" arrivalPos="19.96" arrivalPosLat="0.00" arrivalSpeed="12.43" duration="17.60" routeLength="122.77" waitingTime="0.00" waitingCount="0" stopTime="0.00" timeLoss="6.09" rerouteNo="1" devices="tripinfo_vehicle_26 routing_vehicle_26 emissions_vehicle_26 battery_vehicle_26" vType="human" speedFactor="0.92" vaporized="">
        <emissions CO_abs="0" CO2_abs="0" HC_abs="0" PMx_abs="0" NOx_abs="0" fuel_abs="0" electricity_abs="61.737357"/>
    </tripinfo>
    <tripinfo id="vehicle_8" depart="0.00" departLane="road0_0" departPos="4.10" departPosLat="0.00" departSpeed="8.96" departDelay="0.00" arrival="23.20" arrivalLane="-road2_0" arrivalPos="19.96" arrivalPosLat="0.00" arrivalSpeed="11.76" duration="23.20" routeLength="206.37" waitingTime="0.00" waitingCount="0" stopTime="0.00" timeLoss="6.01" rerouteNo="0" devices="tripinfo_vehicle_8 emissions_vehicle_8 battery_vehicle_8" vType="human" speedFactor="0.94" vaporized="">
        <emissions CO_abs="0" CO2_abs="0" HC_abs="0" PMx_abs="0" NOx_abs="0" fuel_abs="0" electricity_abs="55.060618"/>
    </tripinfo>
    <tripinfo id="vehicle_112" depart="6.80" departLane="road2_0" departPos="4.10" departPosLat="0.00" departSpeed="3.08" departDelay="1.15" arrival="23.20" arrivalLane="-road1_0" arrivalPos="19.96" arrivalPosLat="0.00" arrivalSpeed="12.08" duration="16.40" routeLength="122.77" waitingTime="0.00" waitingCount="0" stopTime="0.00" timeLoss="6.15" rerouteNo="1" devices="tripinfo_vehicle_112 routing_vehicle_112 emissions_vehicle_112 battery_vehicle_112" vType="human" speedFactor="1.10" vaporized="">
        <emissions CO_abs="0" CO2_abs="0" HC_abs="0" PMx_abs="0" NOx_abs="0" fuel_abs="0" electricity_abs="59.536458"/>
    </tripinfo>
    <tripinfo id="vehicle_29" depart="1.20" departLane="road0_0" departPos="4.10" departPosLat="0.00" departSpeed="2.87" departDelay="0.02" arrival="26.00" arrivalLane="-road2_0" arrivalPos="19.96" arrivalPosLat="0.00" arrivalSpeed="12.05" duration="24.80" routeLength="206.37" waitingTime="0.00" waitingCount="0" stopTime="0.00" timeLoss="7.06" rerouteNo="0" devices="tripinfo_vehicle_29 emissions_vehicle_29 battery_vehicle_29" vType="human" speedFactor="0.93" vaporized="">
        <emissions CO_abs="0" CO2_abs="0" HC_abs="0" PMx_abs="0" NOx_abs="0" fuel_abs="0" electricity_abs="73.941209"/>
    </tripinfo>
    <tripinfo id="vehicle_115" depart="8.40" departLane="road1_0" departPos="4.10" departPosLat="0.00" departSpeed="3.24" departDelay="3.97" arrival="26.00" arrivalLane="-road0_0" arrivalPos="19.96" arrivalPosLat="0.00" arrivalSpeed="11.36" duration="17.60" routeLength="122.77" waitingTime="0.00" waitingCount="0" stopTime="0.00" timeLoss="6.47" rerouteNo="1" devices="tripinfo_vehicle_115 routing_vehicle_115 emissions_vehicle_115 battery_vehicle_115" vType="human" speedFactor="0.92" vaporized="">
        <emissions CO_abs="0" CO2_abs="0" HC_abs="0" PMx_abs="0" NOx_abs="0" fuel_abs="0" electricity_abs="52.848851"/>
    </tripinfo>
    <tripinfo id="vehicle_51" depart="11.60" departLane="road0_0" departPos="4.10" departPosLat="0.00" departSpeed="2.66" departDelay="5.73" arrival="26.40" arrivalLane="-road3_0" arrivalPos="19.96" arrivalPosLat="0.00" arrivalSpeed="12.93" duration="14.80" routeLength="122.77" waitingTime="0.00" waitingCount="0" stopTime="0.00" timeLoss="4.79" rerouteNo="0" devices="tripinfo_vehicle_51 emissions_vehicle_51 battery_vehicle_51" vType="human" speedFactor="1.17" vaporized="">
        <emissions CO_abs="0" CO2_abs="0" HC_abs="0" PMx_abs="0" NOx_abs="0" fuel_abs="0" electricity_abs="68.621542"/>
    </tripinfo>
    <tripinfo id="vehicle_103" depart="11.20" departLane="road2_0" departPos="4.10" departPosLat="0.00" departSpeed="2.95" departDelay="5.12" arrival="28.40" arrivalLane="-road1_0" arrivalPos="19.96" arrivalPosLat="0.00" arrivalSpeed="11.70" duration="17.20" routeLength="122.77" waitingTime="0.00" waitingCount="0" stopTime="0.00" timeLoss="6.44" rerouteNo="1" devices="tripinfo_vehicle_103 routing_vehicle_103 emissions_vehicle_103 battery_vehicle_103" vType="human" speedFactor="0.95" vaporized="">
        <emissions CO_abs="0" CO2_abs="0" HC_abs="0" PMx_abs="0" NOx_abs="0" fuel_abs="0" electricity_abs="53.958852"/>
    </tripinfo>
    <tripinfo id="vehicle_44" depart="6.40" departLane="road1_0" departPos="4.10" departPosLat="0.00" departSpeed="3.26" departDelay="2.31" arrival="29.60" arrivalLane="-road3_0" arrivalPos="19.96" arrivalPosLat="0.00" arrivalSpeed="13.10" duration="23.20" routeLength="206.37" waitingTime="0.00" waitingCount="0" stopTime="0.00" timeLoss="6.83" rerouteNo="1" devices="tripinfo_vehicle_44 routing_vehicle_44 emissions_vehicle_44 battery_vehicle_44" vType="human" speedFactor="1.04" vaporized="">
        <emissions CO_abs="0" CO2_abs="0" HC_abs="0" PMx_abs="0" NOx_abs="0" fuel_abs="0" electricity_abs="84.969342"/>
    </tripinfo>
    <tripinfo id="vehicle_62" depart="1.20" departLane="road3_0" departPos="4.10" departPosLat="0.00" departSpeed="9.75" departDelay="0.38" arrival="29.60" arrivalLane="-road0_0" arrivalPos="19.96" arrivalPosLat="0.00" arrivalSpeed="12.04" duration="28.40" routeLength="289.97" waitingTime="0.00" waitingCount="0" stopTime="0.00" timeLoss="6.17" rerouteNo="1" devices="tripinfo_vehicle_62 routing_vehicle_62 emissions_vehicle_62 battery_vehicle_62" vType="human" speedFactor="1.02" vaporized="">
        <emissions CO_abs="0" CO2_abs="0" HC_abs="0" PMx_abs="0" NOx_abs="0" fuel_abs="0" electricity_abs="78.885627"/>
    </tripinfo>
    <tripinfo id="vehicle_82" depart="3.20" departLane="road2_0" departPos="4.10" departPosLat="0.00" departSpeed="6.16" departDelay="0.29" arrival="32.00" arrivalLane="-road3_0" arrivalPos="19.96" arrivalPosLat="0.00" arrivalSpeed="13.36" duration="28.80" routeLength="289.97" waitingTime="0.00" waitingCount="0" stopTime="0.00" timeLoss="6.32" rerouteNo="1" devices="tripinfo_vehicle_82 routing_vehicle_82 emissions_vehicle_82 battery_vehicle_82" vType="human" speedFactor="1.02" vaporized="">
        <emissions CO_abs="0" CO2_abs="0" HC_abs="0" PMx_abs="0" NOx_abs="0" fuel_abs="0" electricity_abs="100.837258"/>
    </tripinfo>
    <tripinfo id="vehicle_34" depart="4.40" departLane="road1_0" departPos="4.10" departPosLat="0.00" departSpeed="1.14" departDelay="0.25" arrival="34.40" arrivalLane="-road2_0" arrivalPos="19.96" arrivalPosLat="0.00" arrivalSpeed="11.12" duration="30.00" routeLength="289.97" waitingTime="0.00" waitingCount="0" stopTime="0.00" timeLoss="7.45" rerouteNo="1" devices="tripinfo_vehicle_34 routing_vehicle_34 emissions_vehicle_34 battery_vehicle_34" vType="human" speedFactor="0.99" vaporized="">
        <emissions CO_abs="0" CO2_abs="0" HC_abs="0" PMx_abs="0" NOx_abs="0" fuel_abs="0" electricity_abs="94.097942"/>
    </tripinfo>
    <tripinfo id="vehicle_97" depart="8.80" departLane="road2_0" departPos="4.10" departPosLat="0.00" departSpeed="2.69" departDelay="2.48" arrival="35.20" arrivalLane="-road0_0" arrivalPos="19.96" arrivalPosLat="0.00" arrivalSpeed="11.83" duration="26.40" routeLength="206.37" waitingTime="0.00" waitingCount="0" stopTime="0.00" timeLoss="8.23" rerouteNo="1" devices="tripinfo_vehicle_97 routing_vehicle_97 emissions_vehicle_97 battery_vehicle_97" vType="human" speedFactor="0.91" vaporized="">
        <emissions CO_abs="0" CO2_abs="0" HC_abs="0" PMx_abs="0" NOx_abs="0" fuel_abs="0" electricity_abs="71.285029"/>
    </tripinfo>
    <tripinfo id="vehicle_53" depart="5.60" departLane="road0_0" departPos="4.10" departPosLat="0.00" departSpeed="4.36" departDelay="1.38" arrival="35.60" arrivalLane="-road1_0" arrivalPos="19.96" arrivalPosLat="0.00" arrivalSpeed="12.53" duration="30.00" routeLength="289.97" waitingTime="0.00" waitingCount="0" stopTime="0.00" timeLoss="7.60" rerouteNo="0" devices="tripinfo_vehicle_53 emissions_vehicle_53 battery_vehicle_53" vType="human" speedFactor="1.10" vaporized="">
        <emissions CO_abs="0" CO2_abs="0" HC_abs="0" PMx_abs="0" NOx_abs="0" fuel_abs="0" electricity_abs="98.603886"/>
    </tripinfo>
    <tripinfo id="vehicle_28" depart="6.00" departLane="road3_0" departPos="4.10" departPosLat="0.00" departSpeed="3.36" departDelay="3.25" arrival="36.40" arrivalLane="-road2_0" arrivalPos="19.96" arrivalPosLat="0.00" arrivalSpeed="12.87" duration="30.40" routeLength="122.77" waitingTime="12.80" waitingCount="1" stopTime="0.00" timeLoss="20.30" rerouteNo="1" devices="tripinfo_vehicle_28 routing_vehicle_28 emissions_vehicle_28 battery_vehicle_28" vType="human" speedFactor="1.13" vaporized="">
        <emissions CO_abs="0" CO2_abs="0" HC_abs="0" PMx_abs="0" NOx_abs="0" fuel_abs="0" electricity_abs="67.448852"/>
    </tripinfo>
    <tripinfo id="vehicle_71" depart="7.20" departLane="road0_0" departPos="4.10" departPosLat="0.00" departSpeed="1.80" departDelay="2.53" arrival="38.00" arrivalLane="-road1_0" arrivalPos="19.96" arrivalPosLat="0.00" arrivalSpeed="12.13" duration="30.80" routeLength="289.97" waitingTime="0.00" waitingCount="0" stopTime="0.00" timeLoss="7.97" rerouteNo="0" devices="tripinfo_vehicle_71 emissions_vehicle_71 battery_vehicle_71" vType="human" speedFactor="0.97" vaporized="">
        <emissions CO_abs="0" CO2_abs="0" HC_abs="0" PMx_abs="0" NOx_abs="0" fuel_abs="0" electricity_abs="98.902074"/>
    </tripinfo>
    <tripinfo id="vehicle_36" depart="13.20" departLane="road2_0" departPos="4.10" departPosLat="0.00" departSpeed="2.30" departDelay="6.71" arrival="38.80" arrivalLane="-road0_0" arrivalPos="19.96" arrivalPosLat="0.00" arrivalSpeed="13.49" duration="25.60" routeLength="206.37" waitingTime="0.00" waitingCount="0" stopTime="0.00" timeLoss="8.45" rerouteNo="1" devices="tripinfo_vehicle_36 routing_vehicle_36 emissions_vehicle_36 battery_vehicle_36" vType="human" speedFactor="0.97" vaporized="">
        <emissions CO_abs="0" CO2_abs="0" HC_abs="0" PMx_abs="0" NOx_abs="0" fuel_abs="0" electricity_abs="84.689345"/>
    </tripinfo>
    <tripinfo id="vehicle_107" depart="9.60" departLane="road0_0" departPos="4.10" departPosLat="0.00" departSpeed="1.15" departDelay="5.13" arrival="40.40" arrivalLane="-road1_0" arrivalPos="19.96" arrivalPosLat="0.00" arrivalSpeed="11.95" duration="30.80" routeLength="289.97" waitingTime="0.00" waitingCount="0" stopTime="0.00" timeLoss="8.58" rerouteNo="0" devices="tripinfo_vehicle_107 emissions_vehicle_107 battery_vehicle_107" vType="human" speedFactor="1.03" vaporized="">
        <emissions CO_abs="0" CO2_abs="0" HC_abs="0" PMx_abs="0" NOx_abs="0" fuel_abs="0" electricity_abs="96.737844"/>
    </tripinfo>
    <tripinfo id="vehicle_65" depart="13.20" departLane="road1_0" departPos="4.10" departPosLat="0.00" departSpeed="1.85" departDelay="6.18" arrival="41.20" arrivalLane="-road3_0" arrivalPos="19.96" arrivalPosLat="0.00" arrivalSpeed="11.95" duration="28.00" routeLength="206.37" waitingTime="0.00" waitingCount="0" stopTime="0.00" timeLoss="9.49" rerouteNo="1" devices="tripinfo_vehicle_65 routing_vehicle_65 emissions_vehicle_65 battery_vehicle_65" vType="human" speedFactor="0.88" vaporized="">
        <emissions CO_abs="0" CO2_abs="0" HC_abs="0" PMx_abs="0" NOx_abs="0" fuel_abs="0" electricity_abs="70.424556"/>
    </tripinfo>
    <tripinfo id="vehicle_94" depart="10.40" departLane="road3_0" departPos="4.10" departPosLat="0.00" departSpeed="0.92" departDelay="7.46" arrival="41.20" arrivalLane="-road2_0" arrivalPos="19.96" arrivalPosLat="0.00" arrivalSpeed="11.84" duration="30.80" routeLength="122.77" waitingTime="10.00" waitingCount="1" stopTime="0.00" timeLoss="20.47" rerouteNo="1" devices="tripinfo_vehicle_94 routing_vehicle_94 emissions_vehicle_94 battery_vehicle_94" vType="human" speedFactor="1.09" vaporized="">
        <emissions CO_abs="0" CO2_abs="0" HC_abs="0" PMx_abs="0" NOx_abs="0" fuel_abs="0" electricity_abs="60.086621"/>
    </tripinfo>
    <tripinfo id="vehicle_56" depart="17.20" departLane="road2_0" departPos="4.10" departPosLat="0.00" departSpeed="0.90" departDelay="9.60" arrival="42.80" arrivalLane="-road0_0" arrivalPos="19.96" arrivalPosLat="0.00" arrivalSpeed="11.60" duration="25.60" routeLength="206.37" waitingTime="0.00" waitingCount="0" stopTime="0.00" timeLoss="7.18" rerouteNo="1" devices="tripinfo_vehicle_56 routing_vehicle_56 emissions_vehicle_56 battery_vehicle_56" vType="human" speedFactor="0.90" vaporized="">
        <emissions CO_abs="0" CO2_abs="0" HC_abs="0" PMx_abs="0" NOx_abs="0" fuel_abs="0" electricity_abs="71.852998"/>
    </tripinfo>
    <tripinfo id="vehicle_63" depart="10.40" departLane="road1_0" departPos="4.10" departPosLat="0.00" departSpeed="1.76" departDelay="3.60" arrival="43.60" arrivalLane="-road2_0" arrivalPos="19.96" arrivalPosLat="0.00" arrivalSpeed="12.52" duration="33.20" routeLength="289.97" waitingTime="0.00" waitingCount="0" stopTime="0.00" timeLoss="10.65" rerouteNo="1" devices="tripinfo_vehicle_63 routing_vehicle_63 emissions_vehicle_63 battery_vehicle_63" vType="human" speedFactor="0.99" vaporized="">
        <emissions CO_abs="0" CO2_abs="0" HC_abs="0" PMx_abs="0" NOx_abs="0" fuel_abs="0" electricity_abs="98.129491"/>
    </tripinfo>
    <tripinfo id="vehicle_54" depart="15.60" departLane="road2_0" departPos="4.10" departPosLat="0.00" departSpeed="3.92" departDelay="8.34" arrival="45.20" arrivalLane="-road3_0" arrivalPos="19.96" arrivalPosLat="0.00" arrivalSpeed="12.71" duration="29.60" routeLength="289.97" waitingTime="0.00" waitingCount="0" stopTime="0.00" timeLoss="7.07" rerouteNo="1" devices="tripinfo_vehicle_54 routing_vehicle_54 emissions_vehicle_54 battery_vehicle_54" vType="human" speedFactor="1.00" vaporized="">
        <emissions CO_abs="0" CO2_abs="0" HC_abs="0" PMx_abs="0" NOx_abs="0" fuel_abs="0" electricity_abs="99.989393"/>
    </tripinfo>
    <tripinfo id="vehicle_52" depart="8.00" departLane="road3_0" departPos="4.10" departPosLat="0.00" departSpeed="1.94" departDelay="5.08" arrival="52.40" arrivalLane="-road0_0" arrivalPos="19.96" arrivalPosLat="0.00" arrivalSpeed="11.81" duration="44.40" routeLength="289.97" waitingTime="10.80" waitingCount="1" stopTime="0.00" timeLoss="22.14" rerouteNo="1" devices="tripinfo_vehicle_52 routing_vehicle_52 emissions_vehicle_52 battery_vehicle_52" vType="human" speedFactor="1.02" vaporized="">
        <emissions CO_abs="0" CO2_abs="0" HC_abs="0" PMx_abs="0" NOx_abs="0" fuel_abs="0" electricity_abs="98.755847"/>
    </tripinfo>
    <tripinfo id="vehicle_117" depart="37.60" departLane="road0_0" departPos="4.10" departPosLat="0.00" departSpeed="2.01" departDelay="25.42" arrival="54.00" arrivalLane="-road3_0" arrivalPos="19.96" arrivalPosLat="0.00" arrivalSpeed="11.00" duration="16.40" routeLength="122.77" waitingTime="0.00" waitingCount="0" stopTime="0.00" timeLoss="6.17" rerouteNo="0" devices="tripinfo_vehicle_117 emissions_vehicle_117 battery_vehicle_117" vType="human" speedFactor="1.00" vaporized="">
        <emissions CO_abs="0" CO2_abs="0" HC_abs="0" PMx_abs="0" NOx_abs="0" fuel_abs="0" electricity_abs="52.842591"/>
    </tripinfo>
    <tripinfo id="vehicle_38" depart="16.00" departLane="road0_0" departPos="4.10" departPosLat="0.00" departSpeed="3.38" departDelay="9.88" arrival="54.80" arrivalLane="-road2_0" arrivalPos="19.96" arrivalPosLat="0.00" arrivalSpeed="11.41" duration="38.80" routeLength="206.37" waitingTime="9.60" waitingCount="1" stopTime="0.00" timeLoss="22.78" rerouteNo="0" devices="tripinfo_vehicle_38 emissions_vehicle_38 battery_vehicle_38" vType="human" speedFactor="1.10" vaporized="">
        <emissions CO_abs="0" CO2_abs="0" HC_abs="0" PMx_abs="0" NOx_abs="0" fuel_abs="0" electricity_abs="70.081486"/>
    </tripinfo>
    <tripinfo id="vehicle_119" depart="13.60" departLane="road0_0" departPos="4.10" departPosLat="0.00" departSpeed="2.32" departDelay="7.61" arrival="56.40" arrivalLane="-road1_0" arrivalPos="19.96" arrivalPosLat="0.00" arrivalSpeed="11.51" duration="42.80" routeLength="289.97" waitingTime="10.80" waitingCount="1" stopTime="0.00" timeLoss="20.73" rerouteNo="0" devices="tripinfo_vehicle_119 emissions_vehicle_119 battery_vehicle_119" vType="human" speedFactor="1.07" vaporized="">
        <emissions CO_abs="0" CO2_abs="0" HC_abs="0" PMx_abs="0" NOx_abs="0" fuel_abs="0" electricity_abs="98.156473"/>
    </tripinfo>
    <tripinfo id="vehicle_106" depart="40.00" departLane="road2_0" departPos="4.10" departPosLat="0.00" departSpeed="1.20" departDelay="27.15" arrival="58.40" arrivalLane="-road1_0" arrivalPos="19.96" arrivalPosLat="0.00" arrivalSpeed="11.57" duration="18.40" routeLength="122.77" waitingTime="0.00" waitingCount="0" stopTime="0.00" timeLoss="8.11" rerouteNo="1" devices="tripinfo_vehicle_106 routing_vehicle_106 emissions_vehicle_106 battery_vehicle_106" vType="human" speedFactor="1.01" vaporized="">
        <emissions CO_abs="0" CO2_abs="0" HC_abs="0" PMx_abs="0" NOx_abs="0" fuel_abs="0" electricity_abs="54.506347"/>
    </tripinfo>
    <tripinfo id="vehicle_91" depart="19.60" departLane="road2_0" departPos="4.10" departPosLat="0.00" departSpeed="3.27" departDelay="11.63" arrival="58.80" arrivalLane="-road0_0" arrivalPos="19.96" arrivalPosLat="0.00" arrivalSpeed="11.41" duration="39.20" routeLength="206.37" waitingTime="12.40" waitingCount="1" stopTime="0.00" timeLoss="20.82" rerouteNo="1" devices="tripinfo_vehicle_91 routing_vehicle_91 emissions_vehicle_91 battery_vehicle_91" vType="human" speedFactor="0.89" vaporized="">
        <emissions CO_abs="0" CO2_abs="0" HC_abs="0" PMx_abs="0" NOx_abs="0" fuel_abs="0" electricity_abs="71.522952"/>
    </tripinfo>
    <tripinfo id="vehicle_85" depart="40.00" departLane="road0_0" departPos="4.10" departPosLat="0.00" departSpeed="3.32" departDelay="26.72" arrival="64.00" arrivalLane="-road2_0" arrivalPos="19.96" arrivalPosLat="0.00" arrivalSpeed="13.00" duration="24.00" routeLength="206.37" waitingTime="0.00" waitingCount="0" stopTime="0.00" timeLoss="7.27" rerouteNo="0" devices="tripinfo_vehicle_85 emissions_vehicle_85 battery_vehicle_85" vType="human" speedFactor="0.98" vaporized="">
        <emissions CO_abs="0" CO2_abs="0" HC_abs="0" PMx_abs="0" NOx_abs="0" fuel_abs="0" electricity_abs="82.568474"/>
    </tripinfo>
    <tripinfo id="vehicle_86" depart="48.40" departLane="road0_0" departPos="4.10" departPosLat="0.00" departSpeed="1.83" departDelay="31.20" arrival="64.40" arrivalLane="-road3_0" arrivalPos="19.96" arrivalPosLat="0.00" arrivalSpeed="12.83" duration="16.00" routeLength="122.77" waitingTime="0.00" waitingCount="0" stopTime="0.00" timeLoss="5.49" rerouteNo="0" devices="tripinfo_vehicle_86 emissions_vehicle_86 battery_vehicle_86" vType="human" speedFactor="1.00" vaporized="">
        <emissions CO_abs="0" CO2_abs="0" HC_abs="0" PMx_abs="0" NOx_abs="0" fuel_abs="0" electricity_abs="65.501685"/>
    </tripinfo>
    <tripinfo id="vehicle_93" depart="18.00" departLane="road0_0" departPos="4.10" departPosLat="0.00" departSpeed="1.49" departDelay="10.86" arrival="65.20" arrivalLane="-road1_0" arrivalPos="19.96" arrivalPosLat="0.00" arrivalSpeed="12.33" duration="47.20" routeLength="289.97" waitingTime="9.20" waitingCount="1" stopTime="0.00" timeLoss="23.05" rerouteNo="0" devices="tripinfo_vehicle_93 emissions_vehicle_93 battery_vehicle_93" vType="human" speedFactor="0.92" vaporized="">
        <emissions CO_abs="0" CO2_abs="0" HC_abs="0" PMx_abs="0" NOx_abs="0" fuel_abs="0" electricity_abs="93.770039"/>
    </tripinfo>
    <tripinfo id="vehicle_105" depart="33.20" departLane="road0_0" departPos="4.10" departPosLat="0.00" departSpeed="1.05" departDelay="24.62" arrival="67.20" arrivalLane="-road1_0" arrivalPos="19.96" arrivalPosLat="0.00" arrivalSpeed="12.84" duration="34.00" routeLength="289.97" waitingTime="0.00" waitingCount="0" stopTime="0.00" timeLoss="11.50" rerouteNo="0" devices="tripinfo_vehicle_105 emissions_vehicle_105 battery_vehicle_105" vType="human" speedFactor="1.07" vaporized="">
        <emissions CO_abs="0" CO2_abs="0" HC_abs="0" PMx_abs="0" NOx_abs="0" fuel_abs="0" electricity_abs="100.395744"/>
    </tripinfo>
    <tripinfo id="vehicle_110" depart="50.00" departLane="road0_0" departPos="4.10" departPosLat="0.00" departSpeed="2.33" departDelay="32.57" arrival="67.20" arrivalLane="-road3_0" arrivalPos="19.96" arrivalPosLat="0.00" arrivalSpeed="11.36" duration="17.20" routeLength="122.77" waitingTime="0.00" waitingCount="0" stopTime="0.00" timeLoss="5.94" rerouteNo="0" devices="tripinfo_vehicle_110 emissions_vehicle_110 battery_vehicle_110" vType="human" speedFactor="0.93" vaporized="">
        <emissions CO_abs="0" CO2_abs="0" HC_abs="0" PMx_abs="0" NOx_abs="0" fuel_abs="0" electricity_abs="53.957929"/>
    </tripinfo>
    <tripinfo id="vehicle_40" depart="42.80" departLane="road2_0" departPos="4.10" departPosLat="0.00" departSpeed="1.79" departDelay="28.77" arrival="68.00" arrivalLane="-road0_0" arrivalPos="19.96" arrivalPosLat="0.00" arrivalSpeed="11.82" duration="25.20" routeLength="206.37" waitingTime="0.00" waitingCount="0" stopTime="0.00" timeLoss="8.91" rerouteNo="1" devices="tripinfo_vehicle_40 routing_vehicle_40 emissions_vehicle_40 battery_vehicle_40" vType="human" speedFactor="1.03" vaporized="">
        <emissions CO_abs="0" CO2_abs="0" HC_abs="0" PMx_abs="0" NOx_abs="0" fuel_abs="0" electricity_abs="75.694344"/>
    </tripinfo>
    <tripinfo id="vehicle_59" depart="44.00" departLane="road0_0" departPos="4.10" departPosLat="0.00" departSpeed="3.63" departDelay="28.42" arrival="68.80" arrivalLane="-road2_0" arrivalPos="19.96" arrivalPosLat="0.00" arrivalSpeed="11.86" duration="24.80" routeLength="206.37" waitingTime="0.00" waitingCount="0" stopTime="0.00" timeLoss="7.91" rerouteNo="0" devices="tripinfo_vehicle_59 emissions_vehicle_59 battery_vehicle_59" vType="human" speedFactor="0.97" vaporized="">
        <emissions CO_abs="0" CO2_abs="0" HC_abs="0" PMx_abs="0" NOx_abs="0" fuel_abs="0" electricity_abs="72.959525"/>
    </tripinfo>
    <tripinfo id="vehicle_27" depart="21.60" departLane="road2_0" departPos="4.10" departPosLat="0.00" departSpeed="2.94" departDelay="12.04" arrival="69.20" arrivalLane="-road3_0" arrivalPos="19.96" arrivalPosLat="0.00" arrivalSpeed="11.74" duration="47.60" routeLength="289.97" waitingTime="12.00" waitingCount="1" stopTime="0.00" timeLoss="24.42" rerouteNo="1" devices="tripinfo_vehicle_27 routing_vehicle_27 emissions_vehicle_27 battery_vehicle_27" vType="human" speedFactor="0.95" vaporized="">
        <emissions CO_abs="0" CO2_abs="0" HC_abs="0" PMx_abs="0" NOx_abs="0" fuel_abs="0" electricity_abs="89.948140"/>
    </tripinfo>
    <tripinfo id="vehicle_118" depart="35.60" departLane="road0_0" departPos="4.10" departPosLat="0.00" departSpeed="2.32" departDelay="25.47" arrival="70.00" arrivalLane="-road1_0" arrivalPos="19.96" arrivalPosLat="0.00" arrivalSpeed="12.33" duration="34.40" routeLength="289.97" waitingTime="0.00" waitingCount="0" stopTime="0.00" timeLoss="11.63" rerouteNo="0" devices="tripinfo_vehicle_118 emissions_vehicle_118 battery_vehicle_118" vType="human" speedFactor="0.99" vaporized="">
        <emissions CO_abs="0" CO2_abs="0" HC_abs="0" PMx_abs="0" NOx_abs="0" fuel_abs="0" electricity_abs="97.396344"/>
    </tripinfo>
    <tripinfo id="vehicle_19" depart="45.20" departLane="road2_0" departPos="4.10" departPosLat="0.00" departSpeed="2.97" departDelay="29.79" arrival="70.40" arrivalLane="-road0_0" arrivalPos="19.96" arrivalPosLat="0.00" arrivalSpeed="13.17" duration="25.20" routeLength="206.37" waitingTime="0.00" waitingCount="0" stopTime="0.00" timeLoss="8.80" rerouteNo="1" devices="tripinfo_vehicle_19 routing_vehicle_19 emissions_vehicle_19 battery_vehicle_19" vType="human" speedFactor="1.16" vaporized="">
        <emissions CO_abs="0" CO2_abs="0" HC_abs="0" PMx_abs="0" NOx_abs="0" fuel_abs="0" electricity_abs="82.926400"/>
    </tripinfo>
    <tripinfo id="vehicle_60" depart="46.00" departLane="road0_0" departPos="4.10" departPosLat="0.00" departSpeed="2.24" departDelay="30.10" arrival="71.20" arrivalLane="-road2_0" arrivalPos="19.96" arrivalPosLat="0.00" arrivalSpeed="11.74" duration="25.20" routeLength="206.37" waitingTime="0.00" waitingCount="0" stopTime="0.00" timeLoss="8.91" rerouteNo="0" devices="tripinfo_vehicle_60 emissions_vehicle_60 battery_vehicle_60" vType="human" speedFactor="1.08" vaporized="">
        <emissions CO_abs="0" CO2_abs="0" HC_abs="0" PMx_abs="0" NOx_abs="0" fuel_abs="0" electricity_abs="73.157145"/>
    </tripinfo>