<?xml version="1.0" encoding="UTF-8"?>

<!-- generated on 2025-05-29 08:53:10 by Eclipse SUMO sumo Version v1_20_0+0085-e155ab8699b
<configuration xmlns:xsi="http://www.w3.org/2001/XMLSchema-instance" xsi:noNamespaceSchemaLocation="http://sumo.dlr.de/xsd/sumoConfiguration.xsd">

    <input>
        <net-file value="../networks/roundabout.net.xml"/>
        <route-files value="../networks/routes1.rou.xml"/>
    </input>

    <output>
        <output-prefix value="115-"/>
        <battery-output.precision value="4"/>
        <tripinfo-output value="../networks/output_data/output_kan/tripinfo/tripinfo-output.xml"/>
        <collision-output value="../networks/output_data/output_kan/collision/collision-output.xml"/>
    </output>

    <time>
        <begin value="0"/>
        <step-length value="0.4"/>
    </time>

    <processing>
        <step-method.ballistic value="true"/>
        <lateral-resolution value="3.2"/>
        <collision.action value="warn"/>
        <collision.mingap-factor value="0"/>
        <time-to-teleport value="-1"/>
        <random-depart-offset value="5"/>
    </processing>

    <report>
        <no-warnings value="True"/>
        <no-step-log value="True"/>
    </report>

    <emissions>
        <device.emissions.probability value="1"/>
    </emissions>

    <battery>
        <device.battery.probability value="1"/>
    </battery>

    <traci_server>
        <remote-port value="38873"/>
    </traci_server>

    <gui_only>
        <quit-on-end value="True"/>
        <start value="True"/>
    </gui_only>

</configuration>
-->

<tripinfos xmlns:xsi="http://www.w3.org/2001/XMLSchema-instance" xsi:noNamespaceSchemaLocation="http://sumo.dlr.de/xsd/tripinfo_file.xsd">
    <tripinfo id="vehicle_60" depart="2.80" departLane="road0_0" departPos="4.10" departPosLat="0.00" departSpeed="9.43" departDelay="0.18" arrival="16.80" arrivalLane="-road3_0" arrivalPos="19.96" arrivalPosLat="0.00" arrivalSpeed="11.27" duration="14.00" routeLength="122.77" waitingTime="0.00" waitingCount="0" stopTime="0.00" timeLoss="3.82" rerouteNo="0" devices="tripinfo_vehicle_60 emissions_vehicle_60 battery_vehicle_60" vType="human" speedFactor="1.08" vaporized="">
        <emissions CO_abs="0" CO2_abs="0" HC_abs="0" PMx_abs="0" NOx_abs="0" fuel_abs="0" electricity_abs="36.436216"/>
    </tripinfo>
    <tripinfo id="vehicle_101" depart="0.40" departLane="road2_0" departPos="4.10" departPosLat="0.00" departSpeed="9.14" departDelay="0.27" arrival="21.60" arrivalLane="-road0_0" arrivalPos="19.96" arrivalPosLat="0.00" arrivalSpeed="12.28" duration="21.20" routeLength="206.37" waitingTime="0.00" waitingCount="0" stopTime="0.00" timeLoss="4.36" rerouteNo="1" devices="tripinfo_vehicle_101 routing_vehicle_101 emissions_vehicle_101 battery_vehicle_101" vType="human" speedFactor="0.96" vaporized="">
        <emissions CO_abs="0" CO2_abs="0" HC_abs="0" PMx_abs="0" NOx_abs="0" fuel_abs="0" electricity_abs="61.500256"/>
    </tripinfo>
    <tripinfo id="vehicle_1" depart="4.80" departLane="road2_0" departPos="4.10" departPosLat="0.00" departSpeed="0.79" departDelay="2.20" arrival="22.00" arrivalLane="-road1_0" arrivalPos="19.96" arrivalPosLat="0.00" arrivalSpeed="12.00" duration="17.20" routeLength="122.77" waitingTime="0.00" waitingCount="0" stopTime="0.00" timeLoss="6.26" rerouteNo="1" devices="tripinfo_vehicle_1 routing_vehicle_1 emissions_vehicle_1 battery_vehicle_1" vType="human" speedFactor="0.94" vaporized="">
        <emissions CO_abs="0" CO2_abs="0" HC_abs="0" PMx_abs="0" NOx_abs="0" fuel_abs="0" electricity_abs="59.387962"/>
    </tripinfo>
    <tripinfo id="vehicle_33" depart="2.40" departLane="road3_0" departPos="4.10" departPosLat="0.00" departSpeed="3.06" departDelay="0.16" arrival="24.00" arrivalLane="-road1_0" arrivalPos="19.96" arrivalPosLat="0.00" arrivalSpeed="12.15" duration="21.60" routeLength="206.37" waitingTime="0.00" waitingCount="0" stopTime="0.00" timeLoss="5.64" rerouteNo="1" devices="tripinfo_vehicle_33 routing_vehicle_33 emissions_vehicle_33 battery_vehicle_33" vType="human" speedFactor="1.17" vaporized="">
        <emissions CO_abs="0" CO2_abs="0" HC_abs="0" PMx_abs="0" NOx_abs="0" fuel_abs="0" electricity_abs="79.875981"/>
    </tripinfo>
    <tripinfo id="vehicle_103" depart="7.20" departLane="road3_0" departPos="4.10" departPosLat="0.00" departSpeed="2.09" departDelay="2.19" arrival="24.40" arrivalLane="-road2_0" arrivalPos="19.96" arrivalPosLat="0.00" arrivalSpeed="12.20" duration="17.20" routeLength="122.77" waitingTime="0.00" waitingCount="0" stopTime="0.00" timeLoss="6.24" rerouteNo="1" devices="tripinfo_vehicle_103 routing_vehicle_103 emissions_vehicle_103 battery_vehicle_103" vType="human" speedFactor="0.95" vaporized="">
        <emissions CO_abs="0" CO2_abs="0" HC_abs="0" PMx_abs="0" NOx_abs="0" fuel_abs="0" electricity_abs="61.261762"/>
    </tripinfo>
    <tripinfo id="vehicle_36" depart="2.80" departLane="road1_0" departPos="4.10" departPosLat="0.00" departSpeed="5.40" departDelay="0.62" arrival="26.00" arrivalLane="-road3_0" arrivalPos="19.96" arrivalPosLat="0.00" arrivalSpeed="13.40" duration="23.20" routeLength="206.37" waitingTime="0.00" waitingCount="0" stopTime="0.00" timeLoss="6.29" rerouteNo="1" devices="tripinfo_vehicle_36 routing_vehicle_36 emissions_vehicle_36 battery_vehicle_36" vType="human" speedFactor="0.97" vaporized="">
        <emissions CO_abs="0" CO2_abs="0" HC_abs="0" PMx_abs="0" NOx_abs="0" fuel_abs="0" electricity_abs="81.625295"/>
    </tripinfo>
    <tripinfo id="vehicle_92" depart="1.20" departLane="road2_0" departPos="4.10" departPosLat="0.00" departSpeed="5.17" departDelay="0.26" arrival="26.00" arrivalLane="-road0_0" arrivalPos="19.96" arrivalPosLat="0.00" arrivalSpeed="11.30" duration="24.80" routeLength="206.37" waitingTime="0.00" waitingCount="0" stopTime="0.00" timeLoss="5.39" rerouteNo="1" devices="tripinfo_vehicle_92 routing_vehicle_92 emissions_vehicle_92 battery_vehicle_92" vType="human" speedFactor="0.83" vaporized="">
        <emissions CO_abs="0" CO2_abs="0" HC_abs="0" PMx_abs="0" NOx_abs="0" fuel_abs="0" electricity_abs="63.535940"/>
    </tripinfo>
    <tripinfo id="vehicle_119" depart="3.60" departLane="road3_0" departPos="4.10" departPosLat="0.00" departSpeed="3.72" departDelay="0.03" arrival="26.40" arrivalLane="-road1_0" arrivalPos="19.96" arrivalPosLat="0.00" arrivalSpeed="12.35" duration="22.80" routeLength="206.37" waitingTime="0.00" waitingCount="0" stopTime="0.00" timeLoss="6.67" rerouteNo="1" devices="tripinfo_vehicle_119 routing_vehicle_119 emissions_vehicle_119 battery_vehicle_119" vType="human" speedFactor="1.07" vaporized="">
        <emissions CO_abs="0" CO2_abs="0" HC_abs="0" PMx_abs="0" NOx_abs="0" fuel_abs="0" electricity_abs="79.425765"/>
    </tripinfo>
    <tripinfo id="vehicle_51" depart="4.00" departLane="road0_0" departPos="4.10" departPosLat="0.00" departSpeed="1.14" departDelay="0.07" arrival="26.80" arrivalLane="-road2_0" arrivalPos="19.96" arrivalPosLat="0.00" arrivalSpeed="12.37" duration="22.80" routeLength="206.37" waitingTime="0.00" waitingCount="0" stopTime="0.00" timeLoss="6.85" rerouteNo="0" devices="tripinfo_vehicle_51 emissions_vehicle_51 battery_vehicle_51" vType="human" speedFactor="1.17" vaporized="">
        <emissions CO_abs="0" CO2_abs="0" HC_abs="0" PMx_abs="0" NOx_abs="0" fuel_abs="0" electricity_abs="83.320462"/>
    </tripinfo>
    <tripinfo id="vehicle_55" depart="7.60" departLane="road0_0" departPos="4.10" departPosLat="0.00" departSpeed="2.44" departDelay="3.22" arrival="28.80" arrivalLane="-road3_0" arrivalPos="19.96" arrivalPosLat="0.00" arrivalSpeed="12.66" duration="21.20" routeLength="122.77" waitingTime="2.80" waitingCount="1" stopTime="0.00" timeLoss="10.82" rerouteNo="0" devices="tripinfo_vehicle_55 emissions_vehicle_55 battery_vehicle_55" vType="human" speedFactor="1.00" vaporized="">
        <emissions CO_abs="0" CO2_abs="0" HC_abs="0" PMx_abs="0" NOx_abs="0" fuel_abs="0" electricity_abs="64.994416"/>
    </tripinfo>
    <tripinfo id="vehicle_77" depart="2.40" departLane="road2_0" departPos="4.10" departPosLat="0.00" departSpeed="1.98" departDelay="0.08" arrival="28.80" arrivalLane="-road0_0" arrivalPos="19.96" arrivalPosLat="0.00" arrivalSpeed="11.77" duration="26.40" routeLength="206.37" waitingTime="0.00" waitingCount="0" stopTime="0.00" timeLoss="9.64" rerouteNo="1" devices="tripinfo_vehicle_77 routing_vehicle_77 emissions_vehicle_77 battery_vehicle_77" vType="human" speedFactor="0.98" vaporized="">
        <emissions CO_abs="0" CO2_abs="0" HC_abs="0" PMx_abs="0" NOx_abs="0" fuel_abs="0" electricity_abs="71.893526"/>
    </tripinfo>
    <tripinfo id="vehicle_8" depart="5.60" departLane="road3_0" departPos="4.10" departPosLat="0.00" departSpeed="3.36" departDelay="0.57" arrival="29.60" arrivalLane="-road1_0" arrivalPos="19.96" arrivalPosLat="0.00" arrivalSpeed="12.65" duration="24.00" routeLength="206.37" waitingTime="0.00" waitingCount="0" stopTime="0.00" timeLoss="6.52" rerouteNo="1" devices="tripinfo_vehicle_8 routing_vehicle_8 emissions_vehicle_8 battery_vehicle_8" vType="human" speedFactor="0.94" vaporized="">
        <emissions CO_abs="0" CO2_abs="0" HC_abs="0" PMx_abs="0" NOx_abs="0" fuel_abs="0" electricity_abs="76.624119"/>
    </tripinfo>
    <tripinfo id="vehicle_23" depart="9.60" departLane="road3_0" departPos="4.10" departPosLat="0.00" departSpeed="1.60" departDelay="4.26" arrival="31.20" arrivalLane="-road2_0" arrivalPos="19.96" arrivalPosLat="0.00" arrivalSpeed="11.08" duration="21.60" routeLength="122.77" waitingTime="2.00" waitingCount="1" stopTime="0.00" timeLoss="9.63" rerouteNo="1" devices="tripinfo_vehicle_23 routing_vehicle_23 emissions_vehicle_23 battery_vehicle_23" vType="human" speedFactor="0.89" vaporized="">
        <emissions CO_abs="0" CO2_abs="0" HC_abs="0" PMx_abs="0" NOx_abs="0" fuel_abs="0" electricity_abs="52.976274"/>
    </tripinfo>
    <tripinfo id="vehicle_43" depart="2.00" departLane="road1_0" departPos="4.10" departPosLat="0.00" departSpeed="9.75" departDelay="0.37" arrival="32.80" arrivalLane="-road2_0" arrivalPos="19.96" arrivalPosLat="0.00" arrivalSpeed="12.33" duration="30.80" routeLength="289.97" waitingTime="0.00" waitingCount="0" stopTime="0.00" timeLoss="8.37" rerouteNo="1" devices="tripinfo_vehicle_43 routing_vehicle_43 emissions_vehicle_43 battery_vehicle_43" vType="human" speedFactor="1.04" vaporized="">
        <emissions CO_abs="0" CO2_abs="0" HC_abs="0" PMx_abs="0" NOx_abs="0" fuel_abs="0" electricity_abs="73.709808"/>
    </tripinfo>
    <tripinfo id="vehicle_109" depart="9.60" departLane="road2_0" departPos="4.10" departPosLat="0.00" departSpeed="2.33" departDelay="6.19" arrival="34.40" arrivalLane="-road1_0" arrivalPos="19.96" arrivalPosLat="0.00" arrivalSpeed="13.09" duration="24.80" routeLength="122.77" waitingTime="2.00" waitingCount="1" stopTime="0.00" timeLoss="13.80" rerouteNo="1" devices="tripinfo_vehicle_109 routing_vehicle_109 emissions_vehicle_109 battery_vehicle_109" vType="human" speedFactor="0.96" vaporized="">
        <emissions CO_abs="0" CO2_abs="0" HC_abs="0" PMx_abs="0" NOx_abs="0" fuel_abs="0" electricity_abs="61.460236"/>
    </tripinfo>
    <tripinfo id="vehicle_84" depart="11.60" departLane="road3_0" departPos="4.10" departPosLat="0.00" departSpeed="2.50" departDelay="4.58" arrival="35.20" arrivalLane="-road2_0" arrivalPos="19.96" arrivalPosLat="0.00" arrivalSpeed="12.16" duration="23.60" routeLength="122.77" waitingTime="0.40" waitingCount="1" stopTime="0.00" timeLoss="13.57" rerouteNo="1" devices="tripinfo_vehicle_84 routing_vehicle_84 emissions_vehicle_84 battery_vehicle_84" vType="human" speedFactor="1.15" vaporized="">
        <emissions CO_abs="0" CO2_abs="0" HC_abs="0" PMx_abs="0" NOx_abs="0" fuel_abs="0" electricity_abs="57.246899"/>
    </tripinfo>
    <tripinfo id="vehicle_113" depart="12.00" departLane="road2_0" departPos="4.10" departPosLat="0.00" departSpeed="1.39" departDelay="8.43" arrival="36.40" arrivalLane="-road1_0" arrivalPos="19.96" arrivalPosLat="0.00" arrivalSpeed="12.91" duration="24.40" routeLength="122.77" waitingTime="0.40" waitingCount="1" stopTime="0.00" timeLoss="13.96" rerouteNo="1" devices="tripinfo_vehicle_113 routing_vehicle_113 emissions_vehicle_113 battery_vehicle_113" vType="human" speedFactor="1.01" vaporized="">
        <emissions CO_abs="0" CO2_abs="0" HC_abs="0" PMx_abs="0" NOx_abs="0" fuel_abs="0" electricity_abs="61.022826"/>
    </tripinfo>
    <tripinfo id="vehicle_87" depart="14.00" departLane="road3_0" departPos="4.10" departPosLat="0.00" departSpeed="1.75" departDelay="6.94" arrival="36.80" arrivalLane="-road2_0" arrivalPos="19.96" arrivalPosLat="0.00" arrivalSpeed="12.52" duration="22.80" routeLength="122.77" waitingTime="0.00" waitingCount="0" stopTime="0.00" timeLoss="12.69" rerouteNo="1" devices="tripinfo_vehicle_87 routing_vehicle_87 emissions_vehicle_87 battery_vehicle_87" vType="human" speedFactor="1.04" vaporized="">
        <emissions CO_abs="0" CO2_abs="0" HC_abs="0" PMx_abs="0" NOx_abs="0" fuel_abs="0" electricity_abs="60.300872"/>
    </tripinfo>
    <tripinfo id="vehicle_9" depart="4.40" departLane="road1_0" departPos="4.10" departPosLat="0.00" departSpeed="1.42" departDelay="1.74" arrival="39.60" arrivalLane="-road3_0" arrivalPos="19.96" arrivalPosLat="0.00" arrivalSpeed="11.95" duration="35.20" routeLength="206.37" waitingTime="6.80" waitingCount="1" stopTime="0.00" timeLoss="16.08" rerouteNo="1" devices="tripinfo_vehicle_9 routing_vehicle_9 emissions_vehicle_9 battery_vehicle_9" vType="human" speedFactor="0.86" vaporized="">
        <emissions CO_abs="0" CO2_abs="0" HC_abs="0" PMx_abs="0" NOx_abs="0" fuel_abs="0" electricity_abs="72.215223"/>
    </tripinfo>
    <tripinfo id="vehicle_85" depart="7.60" departLane="road2_0" departPos="4.10" departPosLat="0.00" departSpeed="1.91" departDelay="5.10" arrival="40.00" arrivalLane="-road0_0" arrivalPos="19.96" arrivalPosLat="0.00" arrivalSpeed="11.30" duration="32.40" routeLength="206.37" waitingTime="3.20" waitingCount="1" stopTime="0.00" timeLoss="15.63" rerouteNo="1" devices="tripinfo_vehicle_85 routing_vehicle_85 emissions_vehicle_85 battery_vehicle_85" vType="human" speedFactor="0.98" vaporized="">
        <emissions CO_abs="0" CO2_abs="0" HC_abs="0" PMx_abs="0" NOx_abs="0" fuel_abs="0" electricity_abs="70.340410"/>
    </tripinfo>
    <tripinfo id="vehicle_66" depart="5.60" departLane="road0_0" departPos="4.10" departPosLat="0.00" departSpeed="2.89" departDelay="1.83" arrival="40.80" arrivalLane="-road1_0" arrivalPos="19.96" arrivalPosLat="0.00" arrivalSpeed="11.17" duration="35.20" routeLength="289.97" waitingTime="0.40" waitingCount="1" stopTime="0.00" timeLoss="10.78" rerouteNo="0" devices="tripinfo_vehicle_66 emissions_vehicle_66 battery_vehicle_66" vType="human" speedFactor="0.91" vaporized="">
        <emissions CO_abs="0" CO2_abs="0" HC_abs="0" PMx_abs="0" NOx_abs="0" fuel_abs="0" electricity_abs="86.770328"/>
    </tripinfo>
    <tripinfo id="vehicle_68" depart="18.40" departLane="road0_0" departPos="4.10" departPosLat="0.00" departSpeed="1.19" departDelay="7.93" arrival="42.40" arrivalLane="-road2_0" arrivalPos="19.96" arrivalPosLat="0.00" arrivalSpeed="12.30" duration="24.00" routeLength="206.37" waitingTime="0.00" waitingCount="0" stopTime="0.00" timeLoss="7.64" rerouteNo="0" devices="tripinfo_vehicle_68 emissions_vehicle_68 battery_vehicle_68" vType="human" speedFactor="1.04" vaporized="">
        <emissions CO_abs="0" CO2_abs="0" HC_abs="0" PMx_abs="0" NOx_abs="0" fuel_abs="0" electricity_abs="81.040571"/>
    </tripinfo>
    <tripinfo id="vehicle_56" depart="19.20" departLane="road2_0" departPos="4.10" departPosLat="0.00" departSpeed="1.59" departDelay="15.52" arrival="43.20" arrivalLane="-road1_0" arrivalPos="19.96" arrivalPosLat="0.00" arrivalSpeed="11.14" duration="24.00" routeLength="122.77" waitingTime="0.40" waitingCount="1" stopTime="0.00" timeLoss="12.70" rerouteNo="1" devices="tripinfo_vehicle_56 routing_vehicle_56 emissions_vehicle_56 battery_vehicle_56" vType="human" speedFactor="0.90" vaporized="">
        <emissions CO_abs="0" CO2_abs="0" HC_abs="0" PMx_abs="0" NOx_abs="0" fuel_abs="0" electricity_abs="47.785559"/>
    </tripinfo>
    <tripinfo id="vehicle_50" depart="6.80" departLane="road1_0" departPos="4.10" departPosLat="0.00" departSpeed="2.69" departDelay="3.50" arrival="44.40" arrivalLane="-road3_0" arrivalPos="19.96" arrivalPosLat="0.00" arrivalSpeed="11.33" duration="37.60" routeLength="206.37" waitingTime="4.80" waitingCount="1" stopTime="0.00" timeLoss="18.41" rerouteNo="1" devices="tripinfo_vehicle_50 routing_vehicle_50 emissions_vehicle_50 battery_vehicle_50" vType="human" speedFactor="0.85" vaporized="">
        <emissions CO_abs="0" CO2_abs="0" HC_abs="0" PMx_abs="0" NOx_abs="0" fuel_abs="0" electricity_abs="64.606594"/>
    </tripinfo>
    <tripinfo id="vehicle_22" depart="21.60" departLane="road2_0" departPos="4.10" departPosLat="0.00" departSpeed="2.78" departDelay="17.50" arrival="45.20" arrivalLane="-road1_0" arrivalPos="19.96" arrivalPosLat="0.00" arrivalSpeed="11.98" duration="23.60" routeLength="122.77" waitingTime="0.00" waitingCount="0" stopTime="0.00" timeLoss="13.05" rerouteNo="1" devices="tripinfo_vehicle_22 routing_vehicle_22 emissions_vehicle_22 battery_vehicle_22" vType="human" speedFactor="0.97" vaporized="">
        <emissions CO_abs="0" CO2_abs="0" HC_abs="0" PMx_abs="0" NOx_abs="0" fuel_abs="0" electricity_abs="52.098747"/>
    </tripinfo>
    <tripinfo id="vehicle_82" depart="9.20" departLane="road1_0" departPos="4.10" departPosLat="0.00" departSpeed="1.15" departDelay="4.33" arrival="46.80" arrivalLane="-road3_0" arrivalPos="19.96" arrivalPosLat="0.00" arrivalSpeed="12.22" duration="37.60" routeLength="206.37" waitingTime="4.40" waitingCount="1" stopTime="0.00" timeLoss="21.07" rerouteNo="1" devices="tripinfo_vehicle_82 routing_vehicle_82 emissions_vehicle_82 battery_vehicle_82" vType="human" speedFactor="1.02" vaporized="">
        <emissions CO_abs="0" CO2_abs="0" HC_abs="0" PMx_abs="0" NOx_abs="0" fuel_abs="0" electricity_abs="73.501379"/>
    </tripinfo>
    <tripinfo id="vehicle_118" depart="19.20" departLane="road1_0" departPos="4.10" departPosLat="0.00" departSpeed="0.83" departDelay="13.62" arrival="49.20" arrivalLane="-road3_0" arrivalPos="19.96" arrivalPosLat="0.00" arrivalSpeed="11.44" duration="30.00" routeLength="206.37" waitingTime="0.00" waitingCount="0" stopTime="0.00" timeLoss="13.42" rerouteNo="1" devices="tripinfo_vehicle_118 routing_vehicle_118 emissions_vehicle_118 battery_vehicle_118" vType="human" speedFactor="0.99" vaporized="">
        <emissions CO_abs="0" CO2_abs="0" HC_abs="0" PMx_abs="0" NOx_abs="0" fuel_abs="0" electricity_abs="68.313834"/>
    </tripinfo>
    <tripinfo id="vehicle_12" depart="9.60" departLane="road0_0" departPos="4.10" departPosLat="0.00" departSpeed="3.76" departDelay="2.67" arrival="50.40" arrivalLane="-road1_0" arrivalPos="19.96" arrivalPosLat="0.00" arrivalSpeed="13.33" duration="40.80" routeLength="289.97" waitingTime="2.00" waitingCount="1" stopTime="0.00" timeLoss="18.29" rerouteNo="0" devices="tripinfo_vehicle_12 emissions_vehicle_12 battery_vehicle_12" vType="human" speedFactor="1.05" vaporized="">
        <emissions CO_abs="0" CO2_abs="0" HC_abs="0" PMx_abs="0" NOx_abs="0" fuel_abs="0" electricity_abs="105.087041"/>
    </tripinfo>
    <tripinfo id="vehicle_5" depart="22.80" departLane="road0_0" departPos="4.10" departPosLat="0.00" departSpeed="1.27" departDelay="10.27" arrival="50.80" arrivalLane="-road2_0" arrivalPos="19.96" arrivalPosLat="0.00" arrivalSpeed="11.08" duration="28.00" routeLength="206.37" waitingTime="0.00" waitingCount="0" stopTime="0.00" timeLoss="8.45" rerouteNo="0" devices="tripinfo_vehicle_5 emissions_vehicle_5 battery_vehicle_5" vType="human" speedFactor="0.83" vaporized="">
        <emissions CO_abs="0" CO2_abs="0" HC_abs="0" PMx_abs="0" NOx_abs="0" fuel_abs="0" electricity_abs="64.699815"/>
    </tripinfo>
    <tripinfo id="vehicle_18" depart="22.00" departLane="road1_0" departPos="4.10" departPosLat="0.00" departSpeed="1.42" departDelay="15.65" arrival="52.40" arrivalLane="-road0_0" arrivalPos="19.96" arrivalPosLat="0.00" arrivalSpeed="11.28" duration="30.40" routeLength="122.77" waitingTime="10.00" waitingCount="2" stopTime="0.00" timeLoss="19.31" rerouteNo="1" devices="tripinfo_vehicle_18 routing_vehicle_18 emissions_vehicle_18 battery_vehicle_18" vType="human" speedFactor="0.94" vaporized="">
        <emissions CO_abs="0" CO2_abs="0" HC_abs="0" PMx_abs="0" NOx_abs="0" fuel_abs="0" electricity_abs="55.548433"/>
    </tripinfo>
    <tripinfo id="vehicle_95" depart="25.60" departLane="road2_0" departPos="4.10" departPosLat="0.00" departSpeed="2.10" departDelay="18.97" arrival="52.40" arrivalLane="-road1_0" arrivalPos="19.96" arrivalPosLat="0.00" arrivalSpeed="12.79" duration="26.80" routeLength="122.77" waitingTime="0.40" waitingCount="1" stopTime="0.00" timeLoss="16.31" rerouteNo="1" devices="tripinfo_vehicle_95 routing_vehicle_95 emissions_vehicle_95 battery_vehicle_95" vType="human" speedFactor="1.06" vaporized="">
        <emissions CO_abs="0" CO2_abs="0" HC_abs="0" PMx_abs="0" NOx_abs="0" fuel_abs="0" electricity_abs="59.313641"/>
    </tripinfo>
    <tripinfo id="vehicle_52" depart="23.60" departLane="road2_0" departPos="4.10" departPosLat="0.00" departSpeed="2.89" departDelay="17.71" arrival="55.20" arrivalLane="-road0_0" arrivalPos="19.96" arrivalPosLat="0.00" arrivalSpeed="11.92" duration="31.60" routeLength="206.37" waitingTime="0.00" waitingCount="0" stopTime="0.00" timeLoss="15.07" rerouteNo="1" devices="tripinfo_vehicle_52 routing_vehicle_52 emissions_vehicle_52 battery_vehicle_52" vType="human" speedFactor="1.02" vaporized="">
        <emissions CO_abs="0" CO2_abs="0" HC_abs="0" PMx_abs="0" NOx_abs="0" fuel_abs="0" electricity_abs="69.513474"/>
    </tripinfo>
    <tripinfo id="vehicle_97" depart="11.60" departLane="road0_0" departPos="4.10" departPosLat="0.00" departSpeed="1.97" departDelay="3.79" arrival="55.20" arrivalLane="-road1_0" arrivalPos="19.96" arrivalPosLat="0.00" arrivalSpeed="10.62" duration="43.60" routeLength="289.97" waitingTime="0.80" waitingCount="1" stopTime="0.00" timeLoss="19.26" rerouteNo="0" devices="tripinfo_vehicle_97 emissions_vehicle_97 battery_vehicle_97" vType="human" speedFactor="0.91" vaporized="">
        <emissions CO_abs="0" CO2_abs="0" HC_abs="0" PMx_abs="0" NOx_abs="0" fuel_abs="0" electricity_abs="78.102233"/>
    </tripinfo>
    <tripinfo id="vehicle_76" depart="21.20" departLane="road0_0" departPos="4.10" departPosLat="0.00" departSpeed="3.57" departDelay="10.41" arrival="57.20" arrivalLane="-road1_0" arrivalPos="19.96" arrivalPosLat="0.00" arrivalSpeed="13.15" duration="36.00" routeLength="289.97" waitingTime="0.00" waitingCount="0" stopTime="0.00" timeLoss="13.59" rerouteNo="0" devices="tripinfo_vehicle_76 emissions_vehicle_76 battery_vehicle_76" vType="human" speedFactor="1.03" vaporized="">
        <emissions CO_abs="0" CO2_abs="0" HC_abs="0" PMx_abs="0" NOx_abs="0" fuel_abs="0" electricity_abs="100.729624"/>
    </tripinfo>
    <tripinfo id="vehicle_90" depart="41.60" departLane="road0_0" departPos="4.10" departPosLat="0.00" departSpeed="2.94" departDelay="22.26" arrival="57.60" arrivalLane="-road3_0" arrivalPos="19.96" arrivalPosLat="0.00" arrivalSpeed="13.63" duration="16.00" routeLength="122.77" waitingTime="0.00" waitingCount="0" stopTime="0.00" timeLoss="5.64" rerouteNo="0" devices="tripinfo_vehicle_90 emissions_vehicle_90 battery_vehicle_90" vType="human" speedFactor="1.02" vaporized="">
        <emissions CO_abs="0" CO2_abs="0" HC_abs="0" PMx_abs="0" NOx_abs="0" fuel_abs="0" electricity_abs="71.194205"/>
    </tripinfo>
    <tripinfo id="vehicle_110" depart="24.80" departLane="road1_0" departPos="4.10" departPosLat="0.00" departSpeed="2.71" departDelay="18.67" arrival="57.60" arrivalLane="-road0_0" arrivalPos="19.96" arrivalPosLat="0.00" arrivalSpeed="11.80" duration="32.80" routeLength="122.77" waitingTime="9.20" waitingCount="1" stopTime="0.00" timeLoss="21.61" rerouteNo="1" devices="tripinfo_vehicle_110 routing_vehicle_110 emissions_vehicle_110 battery_vehicle_110" vType="human" speedFactor="0.93" vaporized="">
        <emissions CO_abs="0" CO2_abs="0" HC_abs="0" PMx_abs="0" NOx_abs="0" fuel_abs="0" electricity_abs="52.138004"/>
    </tripinfo>
    <tripinfo id="vehicle_19" depart="30.80" departLane="road2_0" departPos="4.10" departPosLat="0.00" departSpeed="3.27" departDelay="21.34" arrival="59.20" arrivalLane="-road1_0" arrivalPos="19.96" arrivalPosLat="0.00" arrivalSpeed="12.22" duration="28.40" routeLength="122.77" waitingTime="4.80" waitingCount="2" stopTime="0.00" timeLoss="18.35" rerouteNo="1" devices="tripinfo_vehicle_19 routing_vehicle_19 emissions_vehicle_19 battery_vehicle_19" vType="human" speedFactor="1.16" vaporized="">
        <emissions CO_abs="0" CO2_abs="0" HC_abs="0" PMx_abs="0" NOx_abs="0" fuel_abs="0" electricity_abs="55.870677"/>
    </tripinfo>
    <tripinfo id="vehicle_26" depart="29.60" departLane="road0_0" departPos="4.10" departPosLat="0.00" departSpeed="1.55" departDelay="12.84" arrival="60.00" arrivalLane="-road2_0" arrivalPos="19.96" arrivalPosLat="0.00" arrivalSpeed="12.44" duration="30.40" routeLength="206.37" waitingTime="0.40" waitingCount="1" stopTime="0.00" timeLoss="12.53" rerouteNo="0" devices="tripinfo_vehicle_26 emissions_vehicle_26 battery_vehicle_26" vType="human" speedFactor="0.92" vaporized="">
        <emissions CO_abs="0" CO2_abs="0" HC_abs="0" PMx_abs="0" NOx_abs="0" fuel_abs="0" electricity_abs="78.596232"/>
    </tripinfo>
    <tripinfo id="vehicle_73" depart="43.60" departLane="road0_0" departPos="4.10" departPosLat="0.00" departSpeed="2.89" departDelay="21.98" arrival="60.00" arrivalLane="-road3_0" arrivalPos="19.96" arrivalPosLat="0.00" arrivalSpeed="11.71" duration="16.40" routeLength="122.77" waitingTime="0.00" waitingCount="0" stopTime="0.00" timeLoss="6.08" rerouteNo="0" devices="tripinfo_vehicle_73 emissions_vehicle_73 battery_vehicle_73" vType="human" speedFactor="1.06" vaporized="">
        <emissions CO_abs="0" CO2_abs="0" HC_abs="0" PMx_abs="0" NOx_abs="0" fuel_abs="0" electricity_abs="57.863351"/>
    </tripinfo>
    <tripinfo id="vehicle_70" depart="28.00" departLane="road2_0" departPos="4.10" departPosLat="0.00" departSpeed="2.26" departDelay="19.88" arrival="61.20" arrivalLane="-road0_0" arrivalPos="19.96" arrivalPosLat="0.00" arrivalSpeed="11.85" duration="33.20" routeLength="206.37" waitingTime="0.00" waitingCount="0" stopTime="0.00" timeLoss="16.59" rerouteNo="1" devices="tripinfo_vehicle_70 routing_vehicle_70 emissions_vehicle_70 battery_vehicle_70" vType="human" speedFactor="1.02" vaporized="">
        <emissions CO_abs="0" CO2_abs="0" HC_abs="0" PMx_abs="0" NOx_abs="0" fuel_abs="0" electricity_abs="68.389740"/>
    </tripinfo>
    <tripinfo id="vehicle_59" depart="36.80" departLane="road0_0" departPos="4.10" departPosLat="0.00" departSpeed="1.09" departDelay="19.92" arrival="62.00" arrivalLane="-road2_0" arrivalPos="19.96" arrivalPosLat="0.00" arrivalSpeed="11.58" duration="25.20" routeLength="206.37" waitingTime="0.00" waitingCount="0" stopTime="0.00" timeLoss="8.56" rerouteNo="0" devices="tripinfo_vehicle_59 emissions_vehicle_59 battery_vehicle_59" vType="human" speedFactor="0.97" vaporized="">
        <emissions CO_abs="0" CO2_abs="0" HC_abs="0" PMx_abs="0" NOx_abs="0" fuel_abs="0" electricity_abs="73.178189"/>
    </tripinfo>
    <tripinfo id="vehicle_74" depart="32.80" departLane="road2_0" departPos="4.10" departPosLat="0.00" departSpeed="3.34" departDelay="21.25" arrival="62.00" arrivalLane="-road1_0" arrivalPos="19.96" arrivalPosLat="0.00" arrivalSpeed="12.25" duration="29.20" routeLength="122.77" waitingTime="4.40" waitingCount="1" stopTime="0.00" timeLoss="18.60" rerouteNo="1" devices="tripinfo_vehicle_74 routing_vehicle_74 emissions_vehicle_74 battery_vehicle_74" vType="human" speedFactor="0.96" vaporized="">
        <emissions CO_abs="0" CO2_abs="0" HC_abs="0" PMx_abs="0" NOx_abs="0" fuel_abs="0" electricity_abs="51.827201"/>
    </tripinfo>
    <tripinfo id="vehicle_42" depart="45.60" departLane="road0_0" departPos="4.10" departPosLat="0.00" departSpeed="2.59" departDelay="21.51" arrival="62.40" arrivalLane="-road3_0" arrivalPos="19.96" arrivalPosLat="0.00" arrivalSpeed="13.28" duration="16.80" routeLength="122.77" waitingTime="0.00" waitingCount="0" stopTime="0.00" timeLoss="6.41" rerouteNo="0" devices="tripinfo_vehicle_42 emissions_vehicle_42 battery_vehicle_42" vType="human" speedFactor="1.09" vaporized="">
        <emissions CO_abs="0" CO2_abs="0" HC_abs="0" PMx_abs="0" NOx_abs="0" fuel_abs="0" electricity_abs="67.571512"/>
    </tripinfo>
    <tripinfo id="vehicle_4" depart="44.40" departLane="road1_0" departPos="4.10" departPosLat="0.00" departSpeed="2.87" departDelay="37.06" arrival="63.20" arrivalLane="-road0_0" arrivalPos="19.96" arrivalPosLat="0.00" arrivalSpeed="12.14" duration="18.80" routeLength="122.77" waitingTime="0.00" waitingCount="0" stopTime="0.00" timeLoss="8.33" rerouteNo="1" devices="tripinfo_vehicle_4 routing_vehicle_4 emissions_vehicle_4 battery_vehicle_4" vType="human" speedFactor="1.03" vaporized="">
        <emissions CO_abs="0" CO2_abs="0" HC_abs="0" PMx_abs="0" NOx_abs="0" fuel_abs="0" electricity_abs="55.286875"/>
    </tripinfo>
    <tripinfo id="vehicle_99" depart="19.60" departLane="road3_0" departPos="4.10" departPosLat="0.00" departSpeed="1.11" departDelay="11.77" arrival="64.00" arrivalLane="-road1_0" arrivalPos="19.96" arrivalPosLat="0.00" arrivalSpeed="12.75" duration="44.40" routeLength="206.37" waitingTime="15.60" waitingCount="1" stopTime="0.00" timeLoss="28.20" rerouteNo="1" devices="tripinfo_vehicle_99 routing_vehicle_99 emissions_vehicle_99 battery_vehicle_99" vType="human" speedFactor="1.10" vaporized="">
        <emissions CO_abs="0" CO2_abs="0" HC_abs="0" PMx_abs="0" NOx_abs="0" fuel_abs="0" electricity_abs="79.144875"/>
    </tripinfo>