<?xml version="1.0" encoding="UTF-8"?>

<!-- generated on 2025-05-29 08:53:33 by Eclipse SUMO sumo Version v1_20_0+0085-e155ab8699b
<configuration xmlns:xsi="http://www.w3.org/2001/XMLSchema-instance" xsi:noNamespaceSchemaLocation="http://sumo.dlr.de/xsd/sumoConfiguration.xsd">

    <input>
        <net-file value="../networks/roundabout.net.xml"/>
        <route-files value="../networks/routes1.rou.xml"/>
    </input>

    <output>
        <output-prefix value="125-"/>
        <battery-output.precision value="4"/>
        <tripinfo-output value="../networks/output_data/output_kan/tripinfo/tripinfo-output.xml"/>
        <collision-output value="../networks/output_data/output_kan/collision/collision-output.xml"/>
    </output>

    <time>
        <begin value="0"/>
        <step-length value="0.4"/>
    </time>

    <processing>
        <step-method.ballistic value="true"/>
        <lateral-resolution value="3.2"/>
        <collision.action value="warn"/>
        <collision.mingap-factor value="0"/>
        <time-to-teleport value="-1"/>
        <random-depart-offset value="5"/>
    </processing>

    <report>
        <no-warnings value="True"/>
        <no-step-log value="True"/>
    </report>

    <emissions>
        <device.emissions.probability value="1"/>
    </emissions>

    <battery>
        <device.battery.probability value="1"/>
    </battery>

    <traci_server>
        <remote-port value="51311"/>
    </traci_server>

    <gui_only>
        <quit-on-end value="True"/>
        <start value="True"/>
    </gui_only>

</configuration>
-->

<tripinfos xmlns:xsi="http://www.w3.org/2001/XMLSchema-instance" xsi:noNamespaceSchemaLocation="http://sumo.dlr.de/xsd/tripinfo_file.xsd">
    <tripinfo id="vehicle_99" depart="0.40" departLane="road3_0" departPos="4.10" departPosLat="0.00" departSpeed="9.75" departDelay="0.24" arrival="14.00" arrivalLane="-road2_0" arrivalPos="19.96" arrivalPosLat="0.00" arrivalSpeed="13.13" duration="13.60" routeLength="122.77" waitingTime="0.00" waitingCount="0" stopTime="0.00" timeLoss="3.39" rerouteNo="1" devices="tripinfo_vehicle_99 routing_vehicle_99 emissions_vehicle_99 battery_vehicle_99" vType="human" speedFactor="1.10" vaporized="">
        <emissions CO_abs="0" CO2_abs="0" HC_abs="0" PMx_abs="0" NOx_abs="0" fuel_abs="0" electricity_abs="47.455530"/>
    </tripinfo>
    <tripinfo id="vehicle_42" depart="0.40" departLane="road0_0" departPos="4.10" departPosLat="0.00" departSpeed="9.48" departDelay="0.13" arrival="14.40" arrivalLane="-road3_0" arrivalPos="19.96" arrivalPosLat="0.00" arrivalSpeed="11.33" duration="14.00" routeLength="122.77" waitingTime="0.00" waitingCount="0" stopTime="0.00" timeLoss="3.92" rerouteNo="0" devices="tripinfo_vehicle_42 emissions_vehicle_42 battery_vehicle_42" vType="human" speedFactor="1.09" vaporized="">
        <emissions CO_abs="0" CO2_abs="0" HC_abs="0" PMx_abs="0" NOx_abs="0" fuel_abs="0" electricity_abs="36.770827"/>
    </tripinfo>
    <tripinfo id="vehicle_32" depart="1.20" departLane="road3_0" departPos="4.10" departPosLat="0.00" departSpeed="5.40" departDelay="0.24" arrival="17.20" arrivalLane="-road2_0" arrivalPos="19.96" arrivalPosLat="0.00" arrivalSpeed="12.28" duration="16.00" routeLength="122.77" waitingTime="0.00" waitingCount="0" stopTime="0.00" timeLoss="5.66" rerouteNo="1" devices="tripinfo_vehicle_32 routing_vehicle_32 emissions_vehicle_32 battery_vehicle_32" vType="human" speedFactor="1.01" vaporized="">
        <emissions CO_abs="0" CO2_abs="0" HC_abs="0" PMx_abs="0" NOx_abs="0" fuel_abs="0" electricity_abs="55.112964"/>
    </tripinfo>
    <tripinfo id="vehicle_71" depart="2.00" departLane="road0_0" departPos="4.10" departPosLat="0.00" departSpeed="5.19" departDelay="0.24" arrival="17.60" arrivalLane="-road3_0" arrivalPos="19.96" arrivalPosLat="0.00" arrivalSpeed="12.11" duration="15.60" routeLength="122.77" waitingTime="0.00" waitingCount="0" stopTime="0.00" timeLoss="4.98" rerouteNo="0" devices="tripinfo_vehicle_71 emissions_vehicle_71 battery_vehicle_71" vType="human" speedFactor="0.97" vaporized="">
        <emissions CO_abs="0" CO2_abs="0" HC_abs="0" PMx_abs="0" NOx_abs="0" fuel_abs="0" electricity_abs="52.933490"/>
    </tripinfo>
    <tripinfo id="vehicle_66" depart="2.00" departLane="road2_0" departPos="4.10" departPosLat="0.00" departSpeed="3.48" departDelay="0.08" arrival="18.00" arrivalLane="-road1_0" arrivalPos="19.96" arrivalPosLat="0.00" arrivalSpeed="12.39" duration="16.00" routeLength="122.77" waitingTime="0.00" waitingCount="0" stopTime="0.00" timeLoss="4.60" rerouteNo="1" devices="tripinfo_vehicle_66 routing_vehicle_66 emissions_vehicle_66 battery_vehicle_66" vType="human" speedFactor="0.91" vaporized="">
        <emissions CO_abs="0" CO2_abs="0" HC_abs="0" PMx_abs="0" NOx_abs="0" fuel_abs="0" electricity_abs="59.222591"/>
    </tripinfo>
    <tripinfo id="vehicle_57" depart="0.40" departLane="road2_0" departPos="4.10" departPosLat="0.00" departSpeed="9.75" departDelay="0.30" arrival="20.40" arrivalLane="-road0_0" arrivalPos="19.96" arrivalPosLat="0.00" arrivalSpeed="12.45" duration="20.00" routeLength="206.37" waitingTime="0.00" waitingCount="0" stopTime="0.00" timeLoss="4.10" rerouteNo="1" devices="tripinfo_vehicle_57 routing_vehicle_57 emissions_vehicle_57 battery_vehicle_57" vType="human" speedFactor="1.14" vaporized="">
        <emissions CO_abs="0" CO2_abs="0" HC_abs="0" PMx_abs="0" NOx_abs="0" fuel_abs="0" electricity_abs="62.684079"/>
    </tripinfo>
    <tripinfo id="vehicle_10" depart="0.80" departLane="road1_0" departPos="4.10" departPosLat="0.00" departSpeed="3.06" departDelay="0.11" arrival="22.00" arrivalLane="-road3_0" arrivalPos="19.96" arrivalPosLat="0.00" arrivalSpeed="12.98" duration="21.20" routeLength="206.37" waitingTime="0.00" waitingCount="0" stopTime="0.00" timeLoss="4.93" rerouteNo="1" devices="tripinfo_vehicle_10 routing_vehicle_10 emissions_vehicle_10 battery_vehicle_10" vType="human" speedFactor="1.09" vaporized="">
        <emissions CO_abs="0" CO2_abs="0" HC_abs="0" PMx_abs="0" NOx_abs="0" fuel_abs="0" electricity_abs="87.505059"/>
    </tripinfo>
    <tripinfo id="vehicle_34" depart="2.00" departLane="road1_0" departPos="4.10" departPosLat="0.00" departSpeed="4.00" departDelay="1.54" arrival="24.80" arrivalLane="-road3_0" arrivalPos="19.96" arrivalPosLat="0.00" arrivalSpeed="12.11" duration="22.80" routeLength="206.37" waitingTime="0.00" waitingCount="0" stopTime="0.00" timeLoss="6.35" rerouteNo="1" devices="tripinfo_vehicle_34 routing_vehicle_34 emissions_vehicle_34 battery_vehicle_34" vType="human" speedFactor="0.99" vaporized="">
        <emissions CO_abs="0" CO2_abs="0" HC_abs="0" PMx_abs="0" NOx_abs="0" fuel_abs="0" electricity_abs="77.276447"/>
    </tripinfo>
    <tripinfo id="vehicle_30" depart="5.20" departLane="road3_0" departPos="4.10" departPosLat="0.00" departSpeed="3.77" departDelay="3.10" arrival="27.20" arrivalLane="-road1_0" arrivalPos="19.96" arrivalPosLat="0.00" arrivalSpeed="12.72" duration="22.00" routeLength="206.37" waitingTime="0.00" waitingCount="0" stopTime="0.00" timeLoss="5.98" rerouteNo="1" devices="tripinfo_vehicle_30 routing_vehicle_30 emissions_vehicle_30 battery_vehicle_30" vType="human" speedFactor="1.18" vaporized="">
        <emissions CO_abs="0" CO2_abs="0" HC_abs="0" PMx_abs="0" NOx_abs="0" fuel_abs="0" electricity_abs="85.014884"/>
    </tripinfo>
    <tripinfo id="vehicle_29" depart="3.20" departLane="road0_0" departPos="4.10" departPosLat="0.00" departSpeed="3.73" departDelay="0.37" arrival="28.00" arrivalLane="-road2_0" arrivalPos="19.96" arrivalPosLat="0.00" arrivalSpeed="12.56" duration="24.80" routeLength="206.37" waitingTime="0.00" waitingCount="0" stopTime="0.00" timeLoss="7.35" rerouteNo="0" devices="tripinfo_vehicle_29 emissions_vehicle_29 battery_vehicle_29" vType="human" speedFactor="0.93" vaporized="">
        <emissions CO_abs="0" CO2_abs="0" HC_abs="0" PMx_abs="0" NOx_abs="0" fuel_abs="0" electricity_abs="75.995896"/>
    </tripinfo>
    <tripinfo id="vehicle_51" depart="9.20" departLane="road3_0" departPos="4.10" departPosLat="0.00" departSpeed="2.82" departDelay="4.61" arrival="30.40" arrivalLane="-road2_0" arrivalPos="19.96" arrivalPosLat="0.00" arrivalSpeed="13.04" duration="21.20" routeLength="122.77" waitingTime="3.60" waitingCount="1" stopTime="0.00" timeLoss="11.25" rerouteNo="1" devices="tripinfo_vehicle_51 routing_vehicle_51 emissions_vehicle_51 battery_vehicle_51" vType="human" speedFactor="1.17" vaporized="">
        <emissions CO_abs="0" CO2_abs="0" HC_abs="0" PMx_abs="0" NOx_abs="0" fuel_abs="0" electricity_abs="69.590110"/>
    </tripinfo>
    <tripinfo id="vehicle_45" depart="6.80" departLane="road0_0" departPos="4.10" departPosLat="0.00" departSpeed="3.01" departDelay="0.55" arrival="32.80" arrivalLane="-road3_0" arrivalPos="19.96" arrivalPosLat="0.00" arrivalSpeed="12.56" duration="26.00" routeLength="122.77" waitingTime="6.80" waitingCount="1" stopTime="0.00" timeLoss="15.69" rerouteNo="0" devices="tripinfo_vehicle_45 emissions_vehicle_45 battery_vehicle_45" vType="human" speedFactor="1.09" vaporized="">
        <emissions CO_abs="0" CO2_abs="0" HC_abs="0" PMx_abs="0" NOx_abs="0" fuel_abs="0" electricity_abs="65.496844"/>
    </tripinfo>
    <tripinfo id="vehicle_87" depart="2.80" departLane="road3_0" departPos="4.10" departPosLat="0.00" departSpeed="1.14" departDelay="1.25" arrival="33.20" arrivalLane="-road0_0" arrivalPos="19.96" arrivalPosLat="0.00" arrivalSpeed="13.07" duration="30.40" routeLength="289.97" waitingTime="0.00" waitingCount="0" stopTime="0.00" timeLoss="7.78" rerouteNo="1" devices="tripinfo_vehicle_87 routing_vehicle_87 emissions_vehicle_87 battery_vehicle_87" vType="human" speedFactor="1.04" vaporized="">
        <emissions CO_abs="0" CO2_abs="0" HC_abs="0" PMx_abs="0" NOx_abs="0" fuel_abs="0" electricity_abs="105.350483"/>
    </tripinfo>
    <tripinfo id="vehicle_41" depart="3.60" departLane="road2_0" departPos="4.10" departPosLat="0.00" departSpeed="4.45" departDelay="0.93" arrival="35.60" arrivalLane="-road3_0" arrivalPos="19.96" arrivalPosLat="0.00" arrivalSpeed="11.81" duration="32.00" routeLength="289.97" waitingTime="0.00" waitingCount="0" stopTime="0.00" timeLoss="8.42" rerouteNo="1" devices="tripinfo_vehicle_41 routing_vehicle_41 emissions_vehicle_41 battery_vehicle_41" vType="human" speedFactor="0.96" vaporized="">
        <emissions CO_abs="0" CO2_abs="0" HC_abs="0" PMx_abs="0" NOx_abs="0" fuel_abs="0" electricity_abs="87.442453"/>
    </tripinfo>
    <tripinfo id="vehicle_50" depart="13.60" departLane="road3_0" departPos="4.10" departPosLat="0.00" departSpeed="1.32" departDelay="8.36" arrival="36.40" arrivalLane="-road2_0" arrivalPos="19.96" arrivalPosLat="0.00" arrivalSpeed="11.22" duration="22.80" routeLength="122.77" waitingTime="1.20" waitingCount="1" stopTime="0.00" timeLoss="10.58" rerouteNo="1" devices="tripinfo_vehicle_50 routing_vehicle_50 emissions_vehicle_50 battery_vehicle_50" vType="human" speedFactor="0.85" vaporized="">
        <emissions CO_abs="0" CO2_abs="0" HC_abs="0" PMx_abs="0" NOx_abs="0" fuel_abs="0" electricity_abs="53.936151"/>
    </tripinfo>
    <tripinfo id="vehicle_68" depart="6.80" departLane="road3_0" departPos="4.10" departPosLat="0.00" departSpeed="0.73" departDelay="3.27" arrival="37.20" arrivalLane="-road0_0" arrivalPos="19.96" arrivalPosLat="0.00" arrivalSpeed="12.85" duration="30.40" routeLength="289.97" waitingTime="0.00" waitingCount="0" stopTime="0.00" timeLoss="7.74" rerouteNo="1" devices="tripinfo_vehicle_68 routing_vehicle_68 emissions_vehicle_68 battery_vehicle_68" vType="human" speedFactor="1.04" vaporized="">
        <emissions CO_abs="0" CO2_abs="0" HC_abs="0" PMx_abs="0" NOx_abs="0" fuel_abs="0" electricity_abs="107.591053"/>
    </tripinfo>
    <tripinfo id="vehicle_24" depart="5.20" departLane="road2_0" departPos="4.10" departPosLat="0.00" departSpeed="4.23" departDelay="2.19" arrival="40.40" arrivalLane="-road3_0" arrivalPos="19.96" arrivalPosLat="0.00" arrivalSpeed="10.70" duration="35.20" routeLength="289.97" waitingTime="0.00" waitingCount="0" stopTime="0.00" timeLoss="8.18" rerouteNo="1" devices="tripinfo_vehicle_24 routing_vehicle_24 emissions_vehicle_24 battery_vehicle_24" vType="human" speedFactor="0.83" vaporized="">
        <emissions CO_abs="0" CO2_abs="0" HC_abs="0" PMx_abs="0" NOx_abs="0" fuel_abs="0" electricity_abs="74.650605"/>
    </tripinfo>
    <tripinfo id="vehicle_78" depart="23.20" departLane="road3_0" departPos="4.10" departPosLat="0.00" departSpeed="2.61" departDelay="14.46" arrival="40.40" arrivalLane="-road2_0" arrivalPos="19.96" arrivalPosLat="0.00" arrivalSpeed="12.42" duration="17.20" routeLength="122.77" waitingTime="0.00" waitingCount="0" stopTime="0.00" timeLoss="7.16" rerouteNo="1" devices="tripinfo_vehicle_78 routing_vehicle_78 emissions_vehicle_78 battery_vehicle_78" vType="human" speedFactor="1.01" vaporized="">
        <emissions CO_abs="0" CO2_abs="0" HC_abs="0" PMx_abs="0" NOx_abs="0" fuel_abs="0" electricity_abs="60.704501"/>
    </tripinfo>
    <tripinfo id="vehicle_93" depart="11.20" departLane="road3_0" departPos="4.10" departPosLat="0.00" departSpeed="2.30" departDelay="6.72" arrival="42.40" arrivalLane="-road1_0" arrivalPos="19.96" arrivalPosLat="0.00" arrivalSpeed="11.85" duration="31.20" routeLength="206.37" waitingTime="2.40" waitingCount="1" stopTime="0.00" timeLoss="13.19" rerouteNo="1" devices="tripinfo_vehicle_93 routing_vehicle_93 emissions_vehicle_93 battery_vehicle_93" vType="human" speedFactor="0.92" vaporized="">
        <emissions CO_abs="0" CO2_abs="0" HC_abs="0" PMx_abs="0" NOx_abs="0" fuel_abs="0" electricity_abs="73.538206"/>
    </tripinfo>
    <tripinfo id="vehicle_25" depart="6.80" departLane="road2_0" departPos="4.10" departPosLat="0.00" departSpeed="2.03" departDelay="1.55" arrival="42.80" arrivalLane="-road3_0" arrivalPos="19.96" arrivalPosLat="0.00" arrivalSpeed="11.96" duration="36.00" routeLength="289.97" waitingTime="0.00" waitingCount="0" stopTime="0.00" timeLoss="10.32" rerouteNo="1" devices="tripinfo_vehicle_25 routing_vehicle_25 emissions_vehicle_25 battery_vehicle_25" vType="human" speedFactor="0.87" vaporized="">
        <emissions CO_abs="0" CO2_abs="0" HC_abs="0" PMx_abs="0" NOx_abs="0" fuel_abs="0" electricity_abs="88.432964"/>
    </tripinfo>
    <tripinfo id="vehicle_79" depart="28.00" departLane="road0_0" departPos="4.10" departPosLat="0.00" departSpeed="2.99" departDelay="15.57" arrival="46.80" arrivalLane="-road3_0" arrivalPos="19.96" arrivalPosLat="0.00" arrivalSpeed="11.12" duration="18.80" routeLength="122.77" waitingTime="0.00" waitingCount="0" stopTime="0.00" timeLoss="8.63" rerouteNo="0" devices="tripinfo_vehicle_79 emissions_vehicle_79 battery_vehicle_79" vType="human" speedFactor="1.09" vaporized="">
        <emissions CO_abs="0" CO2_abs="0" HC_abs="0" PMx_abs="0" NOx_abs="0" fuel_abs="0" electricity_abs="49.353652"/>
    </tripinfo>
    <tripinfo id="vehicle_81" depart="5.60" departLane="road0_0" departPos="4.10" departPosLat="0.00" departSpeed="4.57" departDelay="0.22" arrival="46.80" arrivalLane="-road1_0" arrivalPos="19.96" arrivalPosLat="0.00" arrivalSpeed="12.13" duration="41.20" routeLength="289.97" waitingTime="8.40" waitingCount="1" stopTime="0.00" timeLoss="18.72" rerouteNo="0" devices="tripinfo_vehicle_81 emissions_vehicle_81 battery_vehicle_81" vType="human" speedFactor="1.00" vaporized="">
        <emissions CO_abs="0" CO2_abs="0" HC_abs="0" PMx_abs="0" NOx_abs="0" fuel_abs="0" electricity_abs="94.097295"/>
    </tripinfo>
    <tripinfo id="vehicle_97" depart="10.40" departLane="road2_0" departPos="4.10" departPosLat="0.00" departSpeed="5.70" departDelay="0.15" arrival="50.00" arrivalLane="-road3_0" arrivalPos="19.96" arrivalPosLat="0.00" arrivalSpeed="11.44" duration="39.60" routeLength="289.97" waitingTime="5.60" waitingCount="1" stopTime="0.00" timeLoss="15.24" rerouteNo="1" devices="tripinfo_vehicle_97 routing_vehicle_97 emissions_vehicle_97 battery_vehicle_97" vType="human" speedFactor="0.91" vaporized="">
        <emissions CO_abs="0" CO2_abs="0" HC_abs="0" PMx_abs="0" NOx_abs="0" fuel_abs="0" electricity_abs="81.575396"/>
    </tripinfo>
    <tripinfo id="vehicle_39" depart="23.60" departLane="road0_0" departPos="4.10" departPosLat="0.00" departSpeed="1.74" departDelay="14.45" arrival="51.60" arrivalLane="-road2_0" arrivalPos="19.96" arrivalPosLat="0.00" arrivalSpeed="11.01" duration="28.00" routeLength="206.37" waitingTime="0.00" waitingCount="0" stopTime="0.00" timeLoss="9.74" rerouteNo="0" devices="tripinfo_vehicle_39 emissions_vehicle_39 battery_vehicle_39" vType="human" speedFactor="0.90" vaporized="">
        <emissions CO_abs="0" CO2_abs="0" HC_abs="0" PMx_abs="0" NOx_abs="0" fuel_abs="0" electricity_abs="66.379535"/>
    </tripinfo>
    <tripinfo id="vehicle_75" depart="8.80" departLane="road0_0" departPos="4.10" departPosLat="0.00" departSpeed="1.42" departDelay="1.84" arrival="52.00" arrivalLane="-road1_0" arrivalPos="19.96" arrivalPosLat="0.00" arrivalSpeed="12.85" duration="43.20" routeLength="289.97" waitingTime="6.40" waitingCount="1" stopTime="0.00" timeLoss="20.82" rerouteNo="0" devices="tripinfo_vehicle_75 emissions_vehicle_75 battery_vehicle_75" vType="human" speedFactor="0.98" vaporized="">
        <emissions CO_abs="0" CO2_abs="0" HC_abs="0" PMx_abs="0" NOx_abs="0" fuel_abs="0" electricity_abs="100.991342"/>
    </tripinfo>
    <tripinfo id="vehicle_69" depart="25.60" departLane="road3_0" departPos="4.10" departPosLat="0.00" departSpeed="1.26" departDelay="16.51" arrival="53.20" arrivalLane="-road2_0" arrivalPos="19.96" arrivalPosLat="0.00" arrivalSpeed="12.67" duration="27.60" routeLength="122.77" waitingTime="7.60" waitingCount="1" stopTime="0.00" timeLoss="17.28" rerouteNo="1" devices="tripinfo_vehicle_69 routing_vehicle_69 emissions_vehicle_69 battery_vehicle_69" vType="human" speedFactor="1.02" vaporized="">
        <emissions CO_abs="0" CO2_abs="0" HC_abs="0" PMx_abs="0" NOx_abs="0" fuel_abs="0" electricity_abs="63.175280"/>
    </tripinfo>
    <tripinfo id="vehicle_49" depart="11.60" departLane="road2_0" departPos="4.10" departPosLat="0.00" departSpeed="2.80" departDelay="0.91" arrival="53.60" arrivalLane="-road3_0" arrivalPos="19.96" arrivalPosLat="0.00" arrivalSpeed="11.63" duration="42.00" routeLength="289.97" waitingTime="4.40" waitingCount="1" stopTime="0.00" timeLoss="15.81" rerouteNo="1" devices="tripinfo_vehicle_49 routing_vehicle_49 emissions_vehicle_49 battery_vehicle_49" vType="human" speedFactor="0.85" vaporized="">
        <emissions CO_abs="0" CO2_abs="0" HC_abs="0" PMx_abs="0" NOx_abs="0" fuel_abs="0" electricity_abs="84.498995"/>
    </tripinfo>
    <tripinfo id="vehicle_53" depart="21.20" departLane="road0_0" departPos="4.10" departPosLat="0.00" departSpeed="1.34" departDelay="13.37" arrival="54.40" arrivalLane="-road1_0" arrivalPos="19.96" arrivalPosLat="0.00" arrivalSpeed="12.01" duration="33.20" routeLength="289.97" waitingTime="0.00" waitingCount="0" stopTime="0.00" timeLoss="10.87" rerouteNo="0" devices="tripinfo_vehicle_53 emissions_vehicle_53 battery_vehicle_53" vType="human" speedFactor="1.10" vaporized="">
        <emissions CO_abs="0" CO2_abs="0" HC_abs="0" PMx_abs="0" NOx_abs="0" fuel_abs="0" electricity_abs="93.980246"/>
    </tripinfo>
    <tripinfo id="vehicle_83" depart="25.60" departLane="road0_0" departPos="4.10" departPosLat="0.00" departSpeed="2.41" departDelay="15.78" arrival="56.00" arrivalLane="-road2_0" arrivalPos="19.96" arrivalPosLat="0.00" arrivalSpeed="13.14" duration="30.40" routeLength="206.37" waitingTime="0.00" waitingCount="0" stopTime="0.00" timeLoss="13.43" rerouteNo="0" devices="tripinfo_vehicle_83 emissions_vehicle_83 battery_vehicle_83" vType="human" speedFactor="0.97" vaporized="">
        <emissions CO_abs="0" CO2_abs="0" HC_abs="0" PMx_abs="0" NOx_abs="0" fuel_abs="0" electricity_abs="77.486387"/>
    </tripinfo>
    <tripinfo id="vehicle_15" depart="20.80" departLane="road3_0" departPos="4.10" departPosLat="0.00" departSpeed="1.32" departDelay="14.49" arrival="56.80" arrivalLane="-road0_0" arrivalPos="19.96" arrivalPosLat="0.00" arrivalSpeed="11.45" duration="36.00" routeLength="289.97" waitingTime="0.00" waitingCount="0" stopTime="0.00" timeLoss="12.10" rerouteNo="1" devices="tripinfo_vehicle_15 routing_vehicle_15 emissions_vehicle_15 battery_vehicle_15" vType="human" speedFactor="0.93" vaporized="">
        <emissions CO_abs="0" CO2_abs="0" HC_abs="0" PMx_abs="0" NOx_abs="0" fuel_abs="0" electricity_abs="85.597158"/>
    </tripinfo>
    <tripinfo id="vehicle_92" depart="14.00" departLane="road2_0" departPos="4.10" departPosLat="0.00" departSpeed="1.48" departDelay="3.28" arrival="56.80" arrivalLane="-road3_0" arrivalPos="19.96" arrivalPosLat="0.00" arrivalSpeed="9.95" duration="42.80" routeLength="289.97" waitingTime="3.60" waitingCount="1" stopTime="0.00" timeLoss="16.09" rerouteNo="1" devices="tripinfo_vehicle_92 routing_vehicle_92 emissions_vehicle_92 battery_vehicle_92" vType="human" speedFactor="0.83" vaporized="">
        <emissions CO_abs="0" CO2_abs="0" HC_abs="0" PMx_abs="0" NOx_abs="0" fuel_abs="0" electricity_abs="75.207807"/>
    </tripinfo>
    <tripinfo id="vehicle_16" depart="30.80" departLane="road2_0" departPos="4.10" departPosLat="0.00" departSpeed="1.74" departDelay="15.61" arrival="58.40" arrivalLane="-road1_0" arrivalPos="19.96" arrivalPosLat="0.00" arrivalSpeed="10.64" duration="27.60" routeLength="122.77" waitingTime="6.80" waitingCount="1" stopTime="0.00" timeLoss="15.74" rerouteNo="1" devices="tripinfo_vehicle_16 routing_vehicle_16 emissions_vehicle_16 battery_vehicle_16" vType="human" speedFactor="0.88" vaporized="">
        <emissions CO_abs="0" CO2_abs="0" HC_abs="0" PMx_abs="0" NOx_abs="0" fuel_abs="0" electricity_abs="49.257754"/>
    </tripinfo>
    <tripinfo id="vehicle_85" depart="26.40" departLane="road2_0" departPos="4.10" departPosLat="0.00" departSpeed="3.19" departDelay="13.04" arrival="58.80" arrivalLane="-road3_0" arrivalPos="19.96" arrivalPosLat="0.00" arrivalSpeed="11.30" duration="32.40" routeLength="289.97" waitingTime="0.00" waitingCount="0" stopTime="0.00" timeLoss="9.57" rerouteNo="1" devices="tripinfo_vehicle_85 routing_vehicle_85 emissions_vehicle_85 battery_vehicle_85" vType="human" speedFactor="0.98" vaporized="">
        <emissions CO_abs="0" CO2_abs="0" HC_abs="0" PMx_abs="0" NOx_abs="0" fuel_abs="0" electricity_abs="88.293381"/>
    </tripinfo>
    <tripinfo id="vehicle_107" depart="23.60" departLane="road2_0" departPos="4.10" departPosLat="0.00" departSpeed="1.26" departDelay="10.57" arrival="61.20" arrivalLane="-road3_0" arrivalPos="19.96" arrivalPosLat="0.00" arrivalSpeed="12.97" duration="37.60" routeLength="289.97" waitingTime="0.00" waitingCount="0" stopTime="0.00" timeLoss="14.89" rerouteNo="1" devices="tripinfo_vehicle_107 routing_vehicle_107 emissions_vehicle_107 battery_vehicle_107" vType="human" speedFactor="1.03" vaporized="">
        <emissions CO_abs="0" CO2_abs="0" HC_abs="0" PMx_abs="0" NOx_abs="0" fuel_abs="0" electricity_abs="97.073678"/>
    </tripinfo>
    <tripinfo id="vehicle_104" depart="30.00" departLane="road3_0" departPos="4.10" departPosLat="0.00" departSpeed="1.06" departDelay="20.56" arrival="61.60" arrivalLane="-road2_0" arrivalPos="19.96" arrivalPosLat="0.00" arrivalSpeed="11.18" duration="31.60" routeLength="122.77" waitingTime="4.40" waitingCount="1" stopTime="0.00" timeLoss="19.68" rerouteNo="1" devices="tripinfo_vehicle_104 routing_vehicle_104 emissions_vehicle_104 battery_vehicle_104" vType="human" speedFactor="0.89" vaporized="">
        <emissions CO_abs="0" CO2_abs="0" HC_abs="0" PMx_abs="0" NOx_abs="0" fuel_abs="0" electricity_abs="50.240494"/>
    </tripinfo>
    <tripinfo id="vehicle_98" depart="28.00" departLane="road3_0" departPos="4.10" departPosLat="0.00" departSpeed="2.58" departDelay="18.81" arrival="65.60" arrivalLane="-road1_0" arrivalPos="19.96" arrivalPosLat="0.00" arrivalSpeed="12.90" duration="37.60" routeLength="206.37" waitingTime="6.40" waitingCount="2" stopTime="0.00" timeLoss="21.25" rerouteNo="1" devices="tripinfo_vehicle_98 routing_vehicle_98 emissions_vehicle_98 battery_vehicle_98" vType="human" speedFactor="1.12" vaporized="">
        <emissions CO_abs="0" CO2_abs="0" HC_abs="0" PMx_abs="0" NOx_abs="0" fuel_abs="0" electricity_abs="81.396403"/>
    </tripinfo>
    <tripinfo id="vehicle_43" depart="44.00" departLane="road3_0" departPos="4.10" departPosLat="0.00" departSpeed="3.14" departDelay="30.48" arrival="70.80" arrivalLane="-road1_0" arrivalPos="19.96" arrivalPosLat="0.00" arrivalSpeed="11.94" duration="26.80" routeLength="206.37" waitingTime="0.00" waitingCount="0" stopTime="0.00" timeLoss="10.37" rerouteNo="1" devices="tripinfo_vehicle_43 routing_vehicle_43 emissions_vehicle_43 battery_vehicle_43" vType="human" speedFactor="1.04" vaporized="">
        <emissions CO_abs="0" CO2_abs="0" HC_abs="0" PMx_abs="0" NOx_abs="0" fuel_abs="0" electricity_abs="71.783481"/>
    </tripinfo>
    <tripinfo id="vehicle_46" depart="47.60" departLane="road2_0" departPos="4.10" departPosLat="0.00" departSpeed="2.66" departDelay="30.22" arrival="70.80" arrivalLane="-road0_0" arrivalPos="19.96" arrivalPosLat="0.00" arrivalSpeed="11.29" duration="23.20" routeLength="206.37" waitingTime="0.00" waitingCount="0" stopTime="0.00" timeLoss="6.71" rerouteNo="1" devices="tripinfo_vehicle_46 routing_vehicle_46 emissions_vehicle_46 battery_vehicle_46" vType="human" speedFactor="1.00" vaporized="">
        <emissions CO_abs="0" CO2_abs="0" HC_abs="0" PMx_abs="0" NOx_abs="0" fuel_abs="0" electricity_abs="74.523760"/>
    </tripinfo>
    <tripinfo id="vehicle_23" depart="28.40" departLane="road2_0" departPos="4.10" departPosLat="0.00" departSpeed="1.78" departDelay="14.35" arrival="71.20" arrivalLane="-road3_0" arrivalPos="19.96" arrivalPosLat="0.00" arrivalSpeed="11.13" duration="42.80" routeLength="289.97" waitingTime="7.20" waitingCount="2" stopTime="0.00" timeLoss="17.89" rerouteNo="1" devices="tripinfo_vehicle_23 routing_vehicle_23 emissions_vehicle_23 battery_vehicle_23" vType="human" speedFactor="0.89" vaporized="">
        <emissions CO_abs="0" CO2_abs="0" HC_abs="0" PMx_abs="0" NOx_abs="0" fuel_abs="0" electricity_abs="86.011685"/>
    </tripinfo>
    <tripinfo id="vehicle_112" depart="41.20" departLane="road3_0" departPos="4.10" departPosLat="0.00" departSpeed="1.48" departDelay="29.22" arrival="72.80" arrivalLane="-road0_0" arrivalPos="19.96" arrivalPosLat="0.00" arrivalSpeed="12.07" duration="31.60" routeLength="289.97" waitingTime="0.00" waitingCount="0" stopTime="0.00" timeLoss="9.39" rerouteNo="1" devices="tripinfo_vehicle_112 routing_vehicle_112 emissions_vehicle_112 battery_vehicle_112" vType="human" speedFactor="1.10" vaporized="">
        <emissions CO_abs="0" CO2_abs="0" HC_abs="0" PMx_abs="0" NOx_abs="0" fuel_abs="0" electricity_abs="100.931212"/>
    </tripinfo>
    <tripinfo id="vehicle_62" depart="32.00" departLane="road0_0" departPos="4.10" departPosLat="0.00" departSpeed="2.48" departDelay="17.80" arrival="73.20" arrivalLane="-road2_0" arrivalPos="19.96" arrivalPosLat="0.00" arrivalSpeed="12.22" duration="41.20" routeLength="206.37" waitingTime="13.20" waitingCount="1" stopTime="0.00" timeLoss="24.98" rerouteNo="0" devices="tripinfo_vehicle_62 emissions_vehicle_62 battery_vehicle_62" vType="human" speedFactor="1.02" vaporized="">
        <emissions CO_abs="0" CO2_abs="0" HC_abs="0" PMx_abs="0" NOx_abs="0" fuel_abs="0" electricity_abs="75.554389"/>
    </tripinfo>
    <tripinfo id="vehicle_28" depart="33.20" departLane="road2_0" departPos="4.10" departPosLat="0.00" departSpeed="1.81" departDelay="16.98" arrival="74.40" arrivalLane="-road3_0" arrivalPos="19.96" arrivalPosLat="0.00" arrivalSpeed="12.70" duration="41.20" routeLength="289.97" waitingTime="6.00" waitingCount="1" stopTime="0.00" timeLoss="18.85" rerouteNo="1" devices="tripinfo_vehicle_28 routing_vehicle_28 emissions_vehicle_28 battery_vehicle_28" vType="human" speedFactor="1.13" vaporized="">
        <emissions CO_abs="0" CO2_abs="0" HC_abs="0" PMx_abs="0" NOx_abs="0" fuel_abs="0" electricity_abs="99.234870"/>
    </tripinfo>
    <tripinfo id="vehicle_47" depart="34.40" departLane="road0_0" departPos="4.10" departPosLat="0.00" departSpeed="2.03" departDelay="19.79" arrival="76.00" arrivalLane="-road2_0" arrivalPos="19.96" arrivalPosLat="0.00" arrivalSpeed="11.37" duration="41.60" routeLength="206.37" waitingTime="12.40" waitingCount="1" stopTime="0.00" timeLoss="23.60" rerouteNo="0" devices="tripinfo_vehicle_47 emissions_vehicle_47 battery_vehicle_47" vType="human" speedFactor="0.90" vaporized="">
        <emissions CO_abs="0" CO2_abs="0" HC_abs="0" PMx_abs="0" NOx_abs="0" fuel_abs="0" electricity_abs="68.040530"/>
    </tripinfo>
    <tripinfo id="vehicle_9" depart="50.00" departLane="road3_0" departPos="4.10" departPosLat="0.00" departSpeed="2.95" departDelay="34.50" arrival="76.40" arrivalLane="-road1_0" arrivalPos="19.96" arrivalPosLat="0.00" arrivalSpeed="11.92" duration="26.40" routeLength="206.37" waitingTime="0.00" waitingCount="0" stopTime="0.00" timeLoss="6.94" rerouteNo="1" devices="tripinfo_vehicle_9 routing_vehicle_9 emissions_vehicle_9 battery_vehicle_9" vType="human" speedFactor="0.86" vaporized="">
        <emissions CO_abs="0" CO2_abs="0" HC_abs="0" PMx_abs="0" NOx_abs="0" fuel_abs="0" electricity_abs="70.217375"/>
    </tripinfo>
    <tripinfo id="vehicle_3" depart="4.00" departLane="road1_0" departPos="4.10" departPosLat="0.00" departSpeed="3.43" departDelay="2.27" arrival="78.00" arrivalLane="-road2_0" arrivalPos="19.96" arrivalPosLat="0.00" arrivalSpeed="12.47" duration="74.00" routeLength="289.97" waitingTime="40.80" waitingCount="1" stopTime="0.00" timeLoss="51.56" rerouteNo="1" devices="tripinfo_vehicle_3 routing_vehicle_3 emissions_vehicle_3 battery_vehicle_3" vType="human" speedFactor="1.08" vaporized="">
        <emissions CO_abs="0" CO2_abs="0" HC_abs="0" PMx_abs="0" NOx_abs="0" fuel_abs="0" electricity_abs="100.109371"/>