<?xml version="1.0" encoding="UTF-8"?>

<!-- generated on 2025-05-29 08:53:38 by Eclipse SUMO sumo Version v1_20_0+0085-e155ab8699b
<configuration xmlns:xsi="http://www.w3.org/2001/XMLSchema-instance" xsi:noNamespaceSchemaLocation="http://sumo.dlr.de/xsd/sumoConfiguration.xsd">

    <input>
        <net-file value="../networks/roundabout.net.xml"/>
        <route-files value="../networks/routes1.rou.xml"/>
    </input>

    <output>
        <output-prefix value="128-"/>
        <battery-output.precision value="4"/>
        <tripinfo-output value="../networks/output_data/output_kan/tripinfo/tripinfo-output.xml"/>
        <collision-output value="../networks/output_data/output_kan/collision/collision-output.xml"/>
    </output>

    <time>
        <begin value="0"/>
        <step-length value="0.4"/>
    </time>

    <processing>
        <step-method.ballistic value="true"/>
        <lateral-resolution value="3.2"/>
        <collision.action value="warn"/>
        <collision.mingap-factor value="0"/>
        <time-to-teleport value="-1"/>
        <random-depart-offset value="5"/>
    </processing>

    <report>
        <no-warnings value="True"/>
        <no-step-log value="True"/>
    </report>

    <emissions>
        <device.emissions.probability value="1"/>
    </emissions>

    <battery>
        <device.battery.probability value="1"/>
    </battery>

    <traci_server>
        <remote-port value="40685"/>
    </traci_server>

    <gui_only>
        <quit-on-end value="True"/>
        <start value="True"/>
    </gui_only>

</configuration>
-->

<tripinfos xmlns:xsi="http://www.w3.org/2001/XMLSchema-instance" xsi:noNamespaceSchemaLocation="http://sumo.dlr.de/xsd/tripinfo_file.xsd">
    <tripinfo id="vehicle_108" depart="0.40" departLane="road1_0" departPos="4.10" departPosLat="0.00" departSpeed="9.48" departDelay="0.11" arrival="14.40" arrivalLane="-road0_0" arrivalPos="19.96" arrivalPosLat="0.00" arrivalSpeed="13.15" duration="14.00" routeLength="122.77" waitingTime="0.00" waitingCount="0" stopTime="0.00" timeLoss="3.77" rerouteNo="1" devices="tripinfo_vehicle_108 routing_vehicle_108 emissions_vehicle_108 battery_vehicle_108" vType="human" speedFactor="1.06" vaporized="">
        <emissions CO_abs="0" CO2_abs="0" HC_abs="0" PMx_abs="0" NOx_abs="0" fuel_abs="0" electricity_abs="48.816213"/>
    </tripinfo>
    <tripinfo id="vehicle_112" depart="0.40" departLane="road2_0" departPos="4.10" departPosLat="0.00" departSpeed="9.75" departDelay="0.30" arrival="14.40" arrivalLane="-road1_0" arrivalPos="19.96" arrivalPosLat="0.00" arrivalSpeed="12.92" duration="14.00" routeLength="122.77" waitingTime="0.00" waitingCount="0" stopTime="0.00" timeLoss="3.85" rerouteNo="1" devices="tripinfo_vehicle_112 routing_vehicle_112 emissions_vehicle_112 battery_vehicle_112" vType="human" speedFactor="1.10" vaporized="">
        <emissions CO_abs="0" CO2_abs="0" HC_abs="0" PMx_abs="0" NOx_abs="0" fuel_abs="0" electricity_abs="45.684311"/>
    </tripinfo>
    <tripinfo id="vehicle_77" depart="2.40" departLane="road0_0" departPos="4.10" departPosLat="0.00" departSpeed="9.33" departDelay="0.19" arrival="17.20" arrivalLane="-road3_0" arrivalPos="19.96" arrivalPosLat="0.00" arrivalSpeed="10.59" duration="14.80" routeLength="122.77" waitingTime="0.00" waitingCount="0" stopTime="0.00" timeLoss="4.61" rerouteNo="0" devices="tripinfo_vehicle_77 emissions_vehicle_77 battery_vehicle_77" vType="human" speedFactor="0.98" vaporized="">
        <emissions CO_abs="0" CO2_abs="0" HC_abs="0" PMx_abs="0" NOx_abs="0" fuel_abs="0" electricity_abs="31.309365"/>
    </tripinfo>
    <tripinfo id="vehicle_1" depart="5.20" departLane="road1_0" departPos="4.10" departPosLat="0.00" departSpeed="2.69" departDelay="2.79" arrival="22.40" arrivalLane="-road0_0" arrivalPos="19.96" arrivalPosLat="0.00" arrivalSpeed="11.54" duration="17.20" routeLength="122.77" waitingTime="0.00" waitingCount="0" stopTime="0.00" timeLoss="6.21" rerouteNo="1" devices="tripinfo_vehicle_1 routing_vehicle_1 emissions_vehicle_1 battery_vehicle_1" vType="human" speedFactor="0.94" vaporized="">
        <emissions CO_abs="0" CO2_abs="0" HC_abs="0" PMx_abs="0" NOx_abs="0" fuel_abs="0" electricity_abs="53.889907"/>
    </tripinfo>
    <tripinfo id="vehicle_79" depart="1.20" departLane="road1_0" departPos="4.10" departPosLat="0.00" departSpeed="5.28" departDelay="0.67" arrival="24.80" arrivalLane="-road3_0" arrivalPos="19.96" arrivalPosLat="0.00" arrivalSpeed="12.63" duration="23.60" routeLength="206.37" waitingTime="0.00" waitingCount="0" stopTime="0.00" timeLoss="7.22" rerouteNo="1" devices="tripinfo_vehicle_79 routing_vehicle_79 emissions_vehicle_79 battery_vehicle_79" vType="human" speedFactor="1.09" vaporized="">
        <emissions CO_abs="0" CO2_abs="0" HC_abs="0" PMx_abs="0" NOx_abs="0" fuel_abs="0" electricity_abs="77.503924"/>
    </tripinfo>
    <tripinfo id="vehicle_69" depart="2.80" departLane="road1_0" departPos="4.10" departPosLat="0.00" departSpeed="1.27" departDelay="1.16" arrival="26.80" arrivalLane="-road3_0" arrivalPos="19.96" arrivalPosLat="0.00" arrivalSpeed="12.90" duration="24.00" routeLength="206.37" waitingTime="0.00" waitingCount="0" stopTime="0.00" timeLoss="7.73" rerouteNo="1" devices="tripinfo_vehicle_69 routing_vehicle_69 emissions_vehicle_69 battery_vehicle_69" vType="human" speedFactor="1.02" vaporized="">
        <emissions CO_abs="0" CO2_abs="0" HC_abs="0" PMx_abs="0" NOx_abs="0" fuel_abs="0" electricity_abs="84.559404"/>
    </tripinfo>
    <tripinfo id="vehicle_39" depart="5.60" departLane="road2_0" departPos="4.10" departPosLat="0.00" departSpeed="5.20" departDelay="0.36" arrival="29.60" arrivalLane="-road0_0" arrivalPos="19.96" arrivalPosLat="0.00" arrivalSpeed="11.64" duration="24.00" routeLength="206.37" waitingTime="0.00" waitingCount="0" stopTime="0.00" timeLoss="5.97" rerouteNo="1" devices="tripinfo_vehicle_39 routing_vehicle_39 emissions_vehicle_39 battery_vehicle_39" vType="human" speedFactor="0.90" vaporized="">
        <emissions CO_abs="0" CO2_abs="0" HC_abs="0" PMx_abs="0" NOx_abs="0" fuel_abs="0" electricity_abs="67.633473"/>
    </tripinfo>
    <tripinfo id="vehicle_32" depart="1.20" departLane="road2_0" departPos="4.10" departPosLat="0.00" departSpeed="5.40" departDelay="0.49" arrival="30.40" arrivalLane="-road3_0" arrivalPos="19.96" arrivalPosLat="0.00" arrivalSpeed="11.38" duration="29.20" routeLength="289.97" waitingTime="0.00" waitingCount="0" stopTime="0.00" timeLoss="6.79" rerouteNo="1" devices="tripinfo_vehicle_32 routing_vehicle_32 emissions_vehicle_32 battery_vehicle_32" vType="human" speedFactor="1.01" vaporized="">
        <emissions CO_abs="0" CO2_abs="0" HC_abs="0" PMx_abs="0" NOx_abs="0" fuel_abs="0" electricity_abs="88.878074"/>
    </tripinfo>
    <tripinfo id="vehicle_30" depart="6.80" departLane="road2_0" departPos="4.10" departPosLat="0.00" departSpeed="0.20" departDelay="1.01" arrival="31.60" arrivalLane="-road0_0" arrivalPos="19.96" arrivalPosLat="0.00" arrivalSpeed="12.79" duration="24.80" routeLength="206.37" waitingTime="0.00" waitingCount="0" stopTime="0.00" timeLoss="8.58" rerouteNo="1" devices="tripinfo_vehicle_30 routing_vehicle_30 emissions_vehicle_30 battery_vehicle_30" vType="human" speedFactor="1.18" vaporized="">
        <emissions CO_abs="0" CO2_abs="0" HC_abs="0" PMx_abs="0" NOx_abs="0" fuel_abs="0" electricity_abs="82.997311"/>
    </tripinfo>
    <tripinfo id="vehicle_51" depart="4.80" departLane="road2_0" departPos="4.10" departPosLat="0.00" departSpeed="7.23" departDelay="0.34" arrival="32.40" arrivalLane="-road3_0" arrivalPos="19.96" arrivalPosLat="0.00" arrivalSpeed="13.13" duration="27.60" routeLength="289.97" waitingTime="0.00" waitingCount="0" stopTime="0.00" timeLoss="5.66" rerouteNo="1" devices="tripinfo_vehicle_51 routing_vehicle_51 emissions_vehicle_51 battery_vehicle_51" vType="human" speedFactor="1.17" vaporized="">
        <emissions CO_abs="0" CO2_abs="0" HC_abs="0" PMx_abs="0" NOx_abs="0" fuel_abs="0" electricity_abs="97.865381"/>
    </tripinfo>
    <tripinfo id="vehicle_74" depart="3.20" departLane="road0_0" departPos="4.10" departPosLat="0.00" departSpeed="3.67" departDelay="0.21" arrival="33.20" arrivalLane="-road1_0" arrivalPos="19.96" arrivalPosLat="0.00" arrivalSpeed="11.86" duration="30.00" routeLength="289.97" waitingTime="0.00" waitingCount="0" stopTime="0.00" timeLoss="6.76" rerouteNo="0" devices="tripinfo_vehicle_74 emissions_vehicle_74 battery_vehicle_74" vType="human" speedFactor="0.96" vaporized="">
        <emissions CO_abs="0" CO2_abs="0" HC_abs="0" PMx_abs="0" NOx_abs="0" fuel_abs="0" electricity_abs="95.450619"/>
    </tripinfo>
    <tripinfo id="vehicle_17" depart="3.60" departLane="road3_0" departPos="4.10" departPosLat="0.00" departSpeed="1.48" departDelay="0.31" arrival="34.80" arrivalLane="-road0_0" arrivalPos="19.96" arrivalPosLat="0.00" arrivalSpeed="11.15" duration="31.20" routeLength="289.97" waitingTime="0.00" waitingCount="0" stopTime="0.00" timeLoss="7.40" rerouteNo="1" devices="tripinfo_vehicle_17 routing_vehicle_17 emissions_vehicle_17 battery_vehicle_17" vType="human" speedFactor="0.94" vaporized="">
        <emissions CO_abs="0" CO2_abs="0" HC_abs="0" PMx_abs="0" NOx_abs="0" fuel_abs="0" electricity_abs="89.794969"/>
    </tripinfo>
    <tripinfo id="vehicle_63" depart="4.80" departLane="road0_0" departPos="4.10" departPosLat="0.00" departSpeed="2.47" departDelay="1.13" arrival="35.60" arrivalLane="-road1_0" arrivalPos="19.96" arrivalPosLat="0.00" arrivalSpeed="11.90" duration="30.80" routeLength="289.97" waitingTime="0.00" waitingCount="0" stopTime="0.00" timeLoss="8.09" rerouteNo="0" devices="tripinfo_vehicle_63 emissions_vehicle_63 battery_vehicle_63" vType="human" speedFactor="0.99" vaporized="">
        <emissions CO_abs="0" CO2_abs="0" HC_abs="0" PMx_abs="0" NOx_abs="0" fuel_abs="0" electricity_abs="97.857350"/>
    </tripinfo>
    <tripinfo id="vehicle_37" depart="5.20" departLane="road3_0" departPos="4.10" departPosLat="0.00" departSpeed="3.73" departDelay="1.77" arrival="36.40" arrivalLane="-road0_0" arrivalPos="19.96" arrivalPosLat="0.00" arrivalSpeed="13.32" duration="31.20" routeLength="289.97" waitingTime="0.00" waitingCount="0" stopTime="0.00" timeLoss="9.14" rerouteNo="1" devices="tripinfo_vehicle_37 routing_vehicle_37 emissions_vehicle_37 battery_vehicle_37" vType="human" speedFactor="1.18" vaporized="">
        <emissions CO_abs="0" CO2_abs="0" HC_abs="0" PMx_abs="0" NOx_abs="0" fuel_abs="0" electricity_abs="105.665504"/>
    </tripinfo>
    <tripinfo id="vehicle_53" depart="20.80" departLane="road3_0" departPos="4.10" departPosLat="0.00" departSpeed="1.26" departDelay="15.91" arrival="37.20" arrivalLane="-road2_0" arrivalPos="19.96" arrivalPosLat="0.00" arrivalSpeed="12.97" duration="16.40" routeLength="122.77" waitingTime="0.00" waitingCount="0" stopTime="0.00" timeLoss="6.02" rerouteNo="1" devices="tripinfo_vehicle_53 routing_vehicle_53 emissions_vehicle_53 battery_vehicle_53" vType="human" speedFactor="1.10" vaporized="">
        <emissions CO_abs="0" CO2_abs="0" HC_abs="0" PMx_abs="0" NOx_abs="0" fuel_abs="0" electricity_abs="68.626557"/>
    </tripinfo>
    <tripinfo id="vehicle_41" depart="9.20" departLane="road3_0" departPos="4.10" departPosLat="0.00" departSpeed="2.45" departDelay="4.95" arrival="38.80" arrivalLane="-road1_0" arrivalPos="19.96" arrivalPosLat="0.00" arrivalSpeed="12.54" duration="29.60" routeLength="206.37" waitingTime="2.80" waitingCount="1" stopTime="0.00" timeLoss="12.62" rerouteNo="1" devices="tripinfo_vehicle_41 routing_vehicle_41 emissions_vehicle_41 battery_vehicle_41" vType="human" speedFactor="0.96" vaporized="">
        <emissions CO_abs="0" CO2_abs="0" HC_abs="0" PMx_abs="0" NOx_abs="0" fuel_abs="0" electricity_abs="81.489697"/>
    </tripinfo>
    <tripinfo id="vehicle_58" depart="6.80" departLane="road3_0" departPos="4.10" departPosLat="0.00" departSpeed="0.85" departDelay="3.23" arrival="39.20" arrivalLane="-road0_0" arrivalPos="19.96" arrivalPosLat="0.00" arrivalSpeed="11.77" duration="32.40" routeLength="289.97" waitingTime="0.00" waitingCount="0" stopTime="0.00" timeLoss="9.87" rerouteNo="1" devices="tripinfo_vehicle_58 routing_vehicle_58 emissions_vehicle_58 battery_vehicle_58" vType="human" speedFactor="1.02" vaporized="">
        <emissions CO_abs="0" CO2_abs="0" HC_abs="0" PMx_abs="0" NOx_abs="0" fuel_abs="0" electricity_abs="96.617116"/>
    </tripinfo>
    <tripinfo id="vehicle_110" depart="9.60" departLane="road0_0" departPos="4.10" departPosLat="0.00" departSpeed="3.06" departDelay="4.92" arrival="39.20" arrivalLane="-road3_0" arrivalPos="19.96" arrivalPosLat="0.00" arrivalSpeed="11.30" duration="29.60" routeLength="122.77" waitingTime="8.80" waitingCount="2" stopTime="0.00" timeLoss="18.41" rerouteNo="0" devices="tripinfo_vehicle_110 emissions_vehicle_110 battery_vehicle_110" vType="human" speedFactor="0.93" vaporized="">
        <emissions CO_abs="0" CO2_abs="0" HC_abs="0" PMx_abs="0" NOx_abs="0" fuel_abs="0" electricity_abs="52.281700"/>
    </tripinfo>
    <tripinfo id="vehicle_46" depart="11.60" departLane="road3_0" departPos="4.10" departPosLat="0.00" departSpeed="2.91" departDelay="6.84" arrival="41.20" arrivalLane="-road1_0" arrivalPos="19.96" arrivalPosLat="0.00" arrivalSpeed="13.39" duration="29.60" routeLength="206.37" waitingTime="2.40" waitingCount="1" stopTime="0.00" timeLoss="13.23" rerouteNo="1" devices="tripinfo_vehicle_46 routing_vehicle_46 emissions_vehicle_46 battery_vehicle_46" vType="human" speedFactor="1.00" vaporized="">
        <emissions CO_abs="0" CO2_abs="0" HC_abs="0" PMx_abs="0" NOx_abs="0" fuel_abs="0" electricity_abs="86.036569"/>
    </tripinfo>
    <tripinfo id="vehicle_86" depart="9.60" departLane="road1_0" departPos="4.10" departPosLat="0.00" departSpeed="3.89" departDelay="6.74" arrival="41.60" arrivalLane="-road0_0" arrivalPos="19.96" arrivalPosLat="0.00" arrivalSpeed="12.86" duration="32.00" routeLength="122.77" waitingTime="10.00" waitingCount="1" stopTime="0.00" timeLoss="21.59" rerouteNo="1" devices="tripinfo_vehicle_86 routing_vehicle_86 emissions_vehicle_86 battery_vehicle_86" vType="human" speedFactor="1.00" vaporized="">
        <emissions CO_abs="0" CO2_abs="0" HC_abs="0" PMx_abs="0" NOx_abs="0" fuel_abs="0" electricity_abs="59.533817"/>
    </tripinfo>
    <tripinfo id="vehicle_67" depart="6.80" departLane="road0_0" departPos="4.10" departPosLat="0.00" departSpeed="1.89" departDelay="3.00" arrival="43.60" arrivalLane="-road2_0" arrivalPos="19.96" arrivalPosLat="0.00" arrivalSpeed="12.40" duration="36.80" routeLength="206.37" waitingTime="10.00" waitingCount="1" stopTime="0.00" timeLoss="18.87" rerouteNo="0" devices="tripinfo_vehicle_67 emissions_vehicle_67 battery_vehicle_67" vType="human" speedFactor="0.91" vaporized="">
        <emissions CO_abs="0" CO2_abs="0" HC_abs="0" PMx_abs="0" NOx_abs="0" fuel_abs="0" electricity_abs="80.672631"/>
    </tripinfo>
    <tripinfo id="vehicle_18" depart="7.60" departLane="road1_0" departPos="4.10" departPosLat="0.00" departSpeed="1.83" departDelay="4.83" arrival="46.40" arrivalLane="-road3_0" arrivalPos="19.96" arrivalPosLat="0.00" arrivalSpeed="11.34" duration="38.80" routeLength="206.37" waitingTime="11.60" waitingCount="1" stopTime="0.00" timeLoss="21.59" rerouteNo="1" devices="tripinfo_vehicle_18 routing_vehicle_18 emissions_vehicle_18 battery_vehicle_18" vType="human" speedFactor="0.94" vaporized="">
        <emissions CO_abs="0" CO2_abs="0" HC_abs="0" PMx_abs="0" NOx_abs="0" fuel_abs="0" electricity_abs="71.793162"/>
    </tripinfo>
    <tripinfo id="vehicle_109" depart="23.20" departLane="road3_0" departPos="4.10" departPosLat="0.00" departSpeed="2.80" departDelay="17.65" arrival="47.60" arrivalLane="-road1_0" arrivalPos="19.96" arrivalPosLat="0.00" arrivalSpeed="11.99" duration="24.40" routeLength="206.37" waitingTime="0.00" waitingCount="0" stopTime="0.00" timeLoss="7.29" rerouteNo="1" devices="tripinfo_vehicle_109 routing_vehicle_109 emissions_vehicle_109 battery_vehicle_109" vType="human" speedFactor="0.96" vaporized="">
        <emissions CO_abs="0" CO2_abs="0" HC_abs="0" PMx_abs="0" NOx_abs="0" fuel_abs="0" electricity_abs="76.619617"/>
    </tripinfo>
    <tripinfo id="vehicle_48" depart="30.40" departLane="road1_0" departPos="4.10" departPosLat="0.00" departSpeed="1.81" departDelay="26.23" arrival="48.00" arrivalLane="-road0_0" arrivalPos="19.96" arrivalPosLat="0.00" arrivalSpeed="11.21" duration="17.60" routeLength="122.77" waitingTime="0.00" waitingCount="0" stopTime="0.00" timeLoss="5.77" rerouteNo="1" devices="tripinfo_vehicle_48 routing_vehicle_48 emissions_vehicle_48 battery_vehicle_48" vType="human" speedFactor="0.88" vaporized="">
        <emissions CO_abs="0" CO2_abs="0" HC_abs="0" PMx_abs="0" NOx_abs="0" fuel_abs="0" electricity_abs="52.632956"/>
    </tripinfo>
    <tripinfo id="vehicle_14" depart="30.40" departLane="road0_0" departPos="4.10" departPosLat="0.00" departSpeed="2.10" departDelay="22.36" arrival="48.80" arrivalLane="-road3_0" arrivalPos="19.96" arrivalPosLat="0.00" arrivalSpeed="12.95" duration="18.40" routeLength="122.77" waitingTime="0.00" waitingCount="0" stopTime="0.00" timeLoss="7.96" rerouteNo="0" devices="tripinfo_vehicle_14 emissions_vehicle_14 battery_vehicle_14" vType="human" speedFactor="0.99" vaporized="">
        <emissions CO_abs="0" CO2_abs="0" HC_abs="0" PMx_abs="0" NOx_abs="0" fuel_abs="0" electricity_abs="62.534151"/>
    </tripinfo>
    <tripinfo id="vehicle_114" depart="11.60" departLane="road0_0" departPos="4.10" departPosLat="0.00" departSpeed="1.57" departDelay="4.55" arrival="48.80" arrivalLane="-road2_0" arrivalPos="19.96" arrivalPosLat="0.00" arrivalSpeed="12.20" duration="37.20" routeLength="206.37" waitingTime="8.00" waitingCount="1" stopTime="0.00" timeLoss="20.89" rerouteNo="0" devices="tripinfo_vehicle_114 emissions_vehicle_114 battery_vehicle_114" vType="human" speedFactor="1.10" vaporized="">
        <emissions CO_abs="0" CO2_abs="0" HC_abs="0" PMx_abs="0" NOx_abs="0" fuel_abs="0" electricity_abs="80.532060"/>
    </tripinfo>
    <tripinfo id="vehicle_52" depart="32.80" departLane="road1_0" departPos="4.10" departPosLat="0.00" departSpeed="3.63" departDelay="28.09" arrival="50.40" arrivalLane="-road0_0" arrivalPos="19.96" arrivalPosLat="0.00" arrivalSpeed="12.41" duration="17.60" routeLength="122.77" waitingTime="0.00" waitingCount="0" stopTime="0.00" timeLoss="7.08" rerouteNo="1" devices="tripinfo_vehicle_52 routing_vehicle_52 emissions_vehicle_52 battery_vehicle_52" vType="human" speedFactor="1.02" vaporized="">
        <emissions CO_abs="0" CO2_abs="0" HC_abs="0" PMx_abs="0" NOx_abs="0" fuel_abs="0" electricity_abs="58.735811"/>
    </tripinfo>
    <tripinfo id="vehicle_116" depart="28.00" departLane="road0_0" departPos="4.10" departPosLat="0.00" departSpeed="2.57" departDelay="20.41" arrival="50.80" arrivalLane="-road2_0" arrivalPos="19.96" arrivalPosLat="0.00" arrivalSpeed="12.80" duration="22.80" routeLength="206.37" waitingTime="0.00" waitingCount="0" stopTime="0.00" timeLoss="6.79" rerouteNo="0" devices="tripinfo_vehicle_116 emissions_vehicle_116 battery_vehicle_116" vType="human" speedFactor="1.18" vaporized="">
        <emissions CO_abs="0" CO2_abs="0" HC_abs="0" PMx_abs="0" NOx_abs="0" fuel_abs="0" electricity_abs="85.657528"/>
    </tripinfo>
    <tripinfo id="vehicle_91" depart="13.60" departLane="road3_0" departPos="4.10" departPosLat="0.00" departSpeed="1.25" departDelay="8.81" arrival="52.80" arrivalLane="-road0_0" arrivalPos="19.96" arrivalPosLat="0.00" arrivalSpeed="12.32" duration="39.20" routeLength="289.97" waitingTime="1.20" waitingCount="1" stopTime="0.00" timeLoss="14.05" rerouteNo="1" devices="tripinfo_vehicle_91 routing_vehicle_91 emissions_vehicle_91 battery_vehicle_91" vType="human" speedFactor="0.89" vaporized="">
        <emissions CO_abs="0" CO2_abs="0" HC_abs="0" PMx_abs="0" NOx_abs="0" fuel_abs="0" electricity_abs="93.312510"/>
    </tripinfo>
    <tripinfo id="vehicle_76" depart="25.60" departLane="road0_0" departPos="4.10" departPosLat="0.00" departSpeed="0.25" departDelay="18.20" arrival="56.40" arrivalLane="-road1_0" arrivalPos="19.96" arrivalPosLat="0.00" arrivalSpeed="11.95" duration="30.80" routeLength="289.97" waitingTime="0.00" waitingCount="0" stopTime="0.00" timeLoss="8.56" rerouteNo="0" devices="tripinfo_vehicle_76 emissions_vehicle_76 battery_vehicle_76" vType="human" speedFactor="1.03" vaporized="">
        <emissions CO_abs="0" CO2_abs="0" HC_abs="0" PMx_abs="0" NOx_abs="0" fuel_abs="0" electricity_abs="96.742884"/>
    </tripinfo>
    <tripinfo id="vehicle_13" depart="11.60" departLane="road1_0" departPos="4.10" departPosLat="0.00" departSpeed="1.86" departDelay="8.39" arrival="56.80" arrivalLane="-road2_0" arrivalPos="19.96" arrivalPosLat="0.00" arrivalSpeed="12.49" duration="45.20" routeLength="289.97" waitingTime="9.20" waitingCount="1" stopTime="0.00" timeLoss="23.12" rerouteNo="1" devices="tripinfo_vehicle_13 routing_vehicle_13 emissions_vehicle_13 battery_vehicle_13" vType="human" speedFactor="1.12" vaporized="">
        <emissions CO_abs="0" CO2_abs="0" HC_abs="0" PMx_abs="0" NOx_abs="0" fuel_abs="0" electricity_abs="100.337558"/>
    </tripinfo>
    <tripinfo id="vehicle_42" depart="9.20" departLane="road2_0" departPos="4.10" departPosLat="0.00" departSpeed="2.83" departDelay="3.57" arrival="59.20" arrivalLane="-road0_0" arrivalPos="19.96" arrivalPosLat="0.00" arrivalSpeed="11.55" duration="50.00" routeLength="206.37" waitingTime="22.40" waitingCount="1" stopTime="0.00" timeLoss="33.86" rerouteNo="1" devices="tripinfo_vehicle_42 routing_vehicle_42 emissions_vehicle_42 battery_vehicle_42" vType="human" speedFactor="1.09" vaporized="">
        <emissions CO_abs="0" CO2_abs="0" HC_abs="0" PMx_abs="0" NOx_abs="0" fuel_abs="0" electricity_abs="73.826723"/>
    </tripinfo>
    <tripinfo id="vehicle_70" depart="11.20" departLane="road2_0" departPos="4.10" departPosLat="0.00" departSpeed="1.91" departDelay="3.85" arrival="61.20" arrivalLane="-road0_0" arrivalPos="19.96" arrivalPosLat="0.00" arrivalSpeed="12.72" duration="50.00" routeLength="206.37" waitingTime="20.80" waitingCount="1" stopTime="0.00" timeLoss="33.43" rerouteNo="1" devices="tripinfo_vehicle_70 routing_vehicle_70 emissions_vehicle_70 battery_vehicle_70" vType="human" speedFactor="1.02" vaporized="">
        <emissions CO_abs="0" CO2_abs="0" HC_abs="0" PMx_abs="0" NOx_abs="0" fuel_abs="0" electricity_abs="79.964693"/>
    </tripinfo>
    <tripinfo id="vehicle_104" depart="27.20" departLane="road1_0" departPos="4.10" departPosLat="0.00" departSpeed="0.77" departDelay="23.52" arrival="62.00" arrivalLane="-road2_0" arrivalPos="19.96" arrivalPosLat="0.00" arrivalSpeed="11.33" duration="34.80" routeLength="289.97" waitingTime="0.00" waitingCount="0" stopTime="0.00" timeLoss="9.97" rerouteNo="1" devices="tripinfo_vehicle_104 routing_vehicle_104 emissions_vehicle_104 battery_vehicle_104" vType="human" speedFactor="0.89" vaporized="">
        <emissions CO_abs="0" CO2_abs="0" HC_abs="0" PMx_abs="0" NOx_abs="0" fuel_abs="0" electricity_abs="84.466777"/>
    </tripinfo>
    <tripinfo id="vehicle_27" depart="37.20" departLane="road1_0" departPos="4.10" departPosLat="0.00" departSpeed="2.58" departDelay="30.43" arrival="64.80" arrivalLane="-road3_0" arrivalPos="19.96" arrivalPosLat="0.00" arrivalSpeed="11.56" duration="27.60" routeLength="206.37" waitingTime="0.00" waitingCount="0" stopTime="0.00" timeLoss="10.46" rerouteNo="1" devices="tripinfo_vehicle_27 routing_vehicle_27 emissions_vehicle_27 battery_vehicle_27" vType="human" speedFactor="0.95" vaporized="">
        <emissions CO_abs="0" CO2_abs="0" HC_abs="0" PMx_abs="0" NOx_abs="0" fuel_abs="0" electricity_abs="67.952571"/>
    </tripinfo>
    <tripinfo id="vehicle_59" depart="32.40" departLane="road0_0" departPos="4.10" departPosLat="0.00" departSpeed="2.81" departDelay="23.68" arrival="65.20" arrivalLane="-road1_0" arrivalPos="19.96" arrivalPosLat="0.00" arrivalSpeed="11.93" duration="32.80" routeLength="289.97" waitingTime="0.00" waitingCount="0" stopTime="0.00" timeLoss="9.80" rerouteNo="0" devices="tripinfo_vehicle_59 emissions_vehicle_59 battery_vehicle_59" vType="human" speedFactor="0.97" vaporized="">
        <emissions CO_abs="0" CO2_abs="0" HC_abs="0" PMx_abs="0" NOx_abs="0" fuel_abs="0" electricity_abs="95.097467"/>
    </tripinfo>
    <tripinfo id="vehicle_20" depart="25.20" departLane="road3_0" departPos="4.10" departPosLat="0.00" departSpeed="2.83" departDelay="18.67" arrival="66.00" arrivalLane="-road2_0" arrivalPos="19.96" arrivalPosLat="0.00" arrivalSpeed="12.30" duration="40.80" routeLength="122.77" waitingTime="22.00" waitingCount="1" stopTime="0.00" timeLoss="30.41" rerouteNo="1" devices="tripinfo_vehicle_20 routing_vehicle_20 emissions_vehicle_20 battery_vehicle_20" vType="human" speedFactor="1.02" vaporized="">
        <emissions CO_abs="0" CO2_abs="0" HC_abs="0" PMx_abs="0" NOx_abs="0" fuel_abs="0" electricity_abs="62.452363"/>
    </tripinfo>
    <tripinfo id="vehicle_54" depart="36.40" departLane="road0_0" departPos="4.10" departPosLat="0.00" departSpeed="2.82" departDelay="27.15" arrival="67.60" arrivalLane="-road3_0" arrivalPos="19.96" arrivalPosLat="0.00" arrivalSpeed="13.07" duration="31.20" routeLength="122.77" waitingTime="11.60" waitingCount="1" stopTime="0.00" timeLoss="20.73" rerouteNo="0" devices="tripinfo_vehicle_54 emissions_vehicle_54 battery_vehicle_54" vType="human" speedFactor="1.00" vaporized="">
        <emissions CO_abs="0" CO2_abs="0" HC_abs="0" PMx_abs="0" NOx_abs="0" fuel_abs="0" electricity_abs="64.744220"/>
    </tripinfo>
    <tripinfo id="vehicle_9" depart="40.00" departLane="road2_0" departPos="4.10" departPosLat="0.00" departSpeed="1.49" departDelay="29.26" arrival="68.00" arrivalLane="-road0_0" arrivalPos="19.96" arrivalPosLat="0.00" arrivalSpeed="11.58" duration="28.00" routeLength="206.37" waitingTime="0.00" waitingCount="0" stopTime="0.00" timeLoss="8.87" rerouteNo="1" devices="tripinfo_vehicle_9 routing_vehicle_9 emissions_vehicle_9 battery_vehicle_9" vType="human" speedFactor="0.86" vaporized="">
        <emissions CO_abs="0" CO2_abs="0" HC_abs="0" PMx_abs="0" NOx_abs="0" fuel_abs="0" electricity_abs="68.605067"/>
    </tripinfo>
    <tripinfo id="vehicle_4" depart="49.20" departLane="road2_0" departPos="4.10" departPosLat="0.00" departSpeed="2.21" departDelay="35.33" arrival="69.60" arrivalLane="-road1_0" arrivalPos="19.96" arrivalPosLat="0.00" arrivalSpeed="12.47" duration="20.40" routeLength="122.77" waitingTime="0.00" waitingCount="0" stopTime="0.00" timeLoss="10.29" rerouteNo="1" devices="tripinfo_vehicle_4 routing_vehicle_4 emissions_vehicle_4 battery_vehicle_4" vType="human" speedFactor="1.03" vaporized="">
        <emissions CO_abs="0" CO2_abs="0" HC_abs="0" PMx_abs="0" NOx_abs="0" fuel_abs="0" electricity_abs="60.232298"/>
    </tripinfo>
    <tripinfo id="vehicle_65" depart="42.40" departLane="road2_0" departPos="4.10" departPosLat="0.00" departSpeed="3.71" departDelay="29.96" arrival="70.00" arrivalLane="-road0_0" arrivalPos="19.96" arrivalPosLat="0.00" arrivalSpeed="10.76" duration="27.60" routeLength="206.37" waitingTime="0.00" waitingCount="0" stopTime="0.00" timeLoss="9.47" rerouteNo="1" devices="tripinfo_vehicle_65 routing_vehicle_65 emissions_vehicle_65 battery_vehicle_65" vType="human" speedFactor="0.88" vaporized="">
        <emissions CO_abs="0" CO2_abs="0" HC_abs="0" PMx_abs="0" NOx_abs="0" fuel_abs="0" electricity_abs="60.348980"/>
    </tripinfo>
    <tripinfo id="vehicle_64" depart="34.80" departLane="road1_0" departPos="4.10" departPosLat="0.00" departSpeed="0.71" departDelay="30.16" arrival="70.80" arrivalLane="-road2_0" arrivalPos="19.96" arrivalPosLat="0.00" arrivalSpeed="12.58" duration="36.00" routeLength="289.97" waitingTime="0.00" waitingCount="0" stopTime="0.00" timeLoss="12.06" rerouteNo="1" devices="tripinfo_vehicle_64 routing_vehicle_64 emissions_vehicle_64 battery_vehicle_64" vType="human" speedFactor="0.94" vaporized="">
        <emissions CO_abs="0" CO2_abs="0" HC_abs="0" PMx_abs="0" NOx_abs="0" fuel_abs="0" electricity_abs="93.669421"/>
    </tripinfo>
    <tripinfo id="vehicle_40" depart="51.60" departLane="road2_0" departPos="4.10" departPosLat="0.00" departSpeed="3.58" departDelay="37.59" arrival="72.00" arrivalLane="-road1_0" arrivalPos="19.96" arrivalPosLat="0.00" arrivalSpeed="12.89" duration="20.40" routeLength="122.77" waitingTime="0.00" waitingCount="0" stopTime="0.00" timeLoss="10.14" rerouteNo="1" devices="tripinfo_vehicle_40 routing_vehicle_40 emissions_vehicle_40 battery_vehicle_40" vType="human" speedFactor="1.03" vaporized="">
        <emissions CO_abs="0" CO2_abs="0" HC_abs="0" PMx_abs="0" NOx_abs="0" fuel_abs="0" electricity_abs="58.750557"/>
    </tripinfo>
    <tripinfo id="vehicle_119" depart="44.40" departLane="road2_0" departPos="4.10" departPosLat="0.00" departSpeed="2.07" departDelay="31.30" arrival="72.00" arrivalLane="-road0_0" arrivalPos="19.96" arrivalPosLat="0.00" arrivalSpeed="12.58" duration="27.60" routeLength="206.37" waitingTime="0.00" waitingCount="0" stopTime="0.00" timeLoss="11.32" rerouteNo="1" devices="tripinfo_vehicle_119 routing_vehicle_119 emissions_vehicle_119 battery_vehicle_119" vType="human" speedFactor="1.07" vaporized="">
        <emissions CO_abs="0" CO2_abs="0" HC_abs="0" PMx_abs="0" NOx_abs="0" fuel_abs="0" electricity_abs="74.138569"/>
    </tripinfo>
    <tripinfo id="vehicle_25" depart="14.00" departLane="road2_0" departPos="4.10" departPosLat="0.00" departSpeed="1.66" departDelay="5.15" arrival="72.40" arrivalLane="-road3_0" arrivalPos="19.96" arrivalPosLat="0.00" arrivalSpeed="10.94" duration="58.40" routeLength="289.97" waitingTime="20.00" waitingCount="1" stopTime="0.00" timeLoss="32.90" rerouteNo="1" devices="tripinfo_vehicle_25 routing_vehicle_25 emissions_vehicle_25 battery_vehicle_25" vType="human" speedFactor="0.87" vaporized="">