<?xml version="1.0" encoding="UTF-8"?>

<!-- generated on 2025-05-29 08:54:04 by Eclipse SUMO sumo Version v1_20_0+0085-e155ab8699b
<configuration xmlns:xsi="http://www.w3.org/2001/XMLSchema-instance" xsi:noNamespaceSchemaLocation="http://sumo.dlr.de/xsd/sumoConfiguration.xsd">

    <input>
        <net-file value="../networks/roundabout.net.xml"/>
        <route-files value="../networks/routes1.rou.xml"/>
    </input>

    <output>
        <output-prefix value="139-"/>
        <battery-output.precision value="4"/>
        <tripinfo-output value="../networks/output_data/output_kan/tripinfo/tripinfo-output.xml"/>
        <collision-output value="../networks/output_data/output_kan/collision/collision-output.xml"/>
    </output>

    <time>
        <begin value="0"/>
        <step-length value="0.4"/>
    </time>

    <processing>
        <step-method.ballistic value="true"/>
        <lateral-resolution value="3.2"/>
        <collision.action value="warn"/>
        <collision.mingap-factor value="0"/>
        <time-to-teleport value="-1"/>
        <random-depart-offset value="5"/>
    </processing>

    <report>
        <no-warnings value="True"/>
        <no-step-log value="True"/>
    </report>

    <emissions>
        <device.emissions.probability value="1"/>
    </emissions>

    <battery>
        <device.battery.probability value="1"/>
    </battery>

    <traci_server>
        <remote-port value="38111"/>
    </traci_server>

    <gui_only>
        <quit-on-end value="True"/>
        <start value="True"/>
    </gui_only>

</configuration>
-->

<tripinfos xmlns:xsi="http://www.w3.org/2001/XMLSchema-instance" xsi:noNamespaceSchemaLocation="http://sumo.dlr.de/xsd/tripinfo_file.xsd">
    <tripinfo id="vehicle_28" depart="0.40" departLane="road0_0" departPos="4.10" departPosLat="0.00" departSpeed="9.48" departDelay="0.32" arrival="14.40" arrivalLane="-road3_0" arrivalPos="19.96" arrivalPosLat="0.00" arrivalSpeed="11.60" duration="14.00" routeLength="122.77" waitingTime="0.00" waitingCount="0" stopTime="0.00" timeLoss="3.86" rerouteNo="0" devices="tripinfo_vehicle_28 emissions_vehicle_28 battery_vehicle_28" vType="human" speedFactor="1.13" vaporized="">
        <emissions CO_abs="0" CO2_abs="0" HC_abs="0" PMx_abs="0" NOx_abs="0" fuel_abs="0" electricity_abs="38.645250"/>
    </tripinfo>
    <tripinfo id="vehicle_54" depart="2.00" departLane="road1_0" departPos="4.10" departPosLat="0.00" departSpeed="5.29" departDelay="0.22" arrival="16.00" arrivalLane="-road0_0" arrivalPos="19.96" arrivalPosLat="0.00" arrivalSpeed="12.94" duration="14.00" routeLength="122.77" waitingTime="0.00" waitingCount="0" stopTime="0.00" timeLoss="3.81" rerouteNo="1" devices="tripinfo_vehicle_54 routing_vehicle_54 emissions_vehicle_54 battery_vehicle_54" vType="human" speedFactor="1.00" vaporized="">
        <emissions CO_abs="0" CO2_abs="0" HC_abs="0" PMx_abs="0" NOx_abs="0" fuel_abs="0" electricity_abs="62.321942"/>
    </tripinfo>
    <tripinfo id="vehicle_24" depart="0.80" departLane="road2_0" departPos="4.10" departPosLat="0.00" departSpeed="8.80" departDelay="0.24" arrival="17.60" arrivalLane="-road1_0" arrivalPos="19.96" arrivalPosLat="0.00" arrivalSpeed="11.25" duration="16.80" routeLength="122.77" waitingTime="0.00" waitingCount="0" stopTime="0.00" timeLoss="4.39" rerouteNo="1" devices="tripinfo_vehicle_24 routing_vehicle_24 emissions_vehicle_24 battery_vehicle_24" vType="human" speedFactor="0.83" vaporized="">
        <emissions CO_abs="0" CO2_abs="0" HC_abs="0" PMx_abs="0" NOx_abs="0" fuel_abs="0" electricity_abs="33.095739"/>
    </tripinfo>
    <tripinfo id="vehicle_108" depart="2.80" departLane="road0_0" departPos="4.10" departPosLat="0.00" departSpeed="2.59" departDelay="0.03" arrival="19.20" arrivalLane="-road3_0" arrivalPos="19.96" arrivalPosLat="0.00" arrivalSpeed="12.55" duration="16.40" routeLength="122.77" waitingTime="0.00" waitingCount="0" stopTime="0.00" timeLoss="6.28" rerouteNo="0" devices="tripinfo_vehicle_108 emissions_vehicle_108 battery_vehicle_108" vType="human" speedFactor="1.06" vaporized="">
        <emissions CO_abs="0" CO2_abs="0" HC_abs="0" PMx_abs="0" NOx_abs="0" fuel_abs="0" electricity_abs="61.912571"/>
    </tripinfo>
    <tripinfo id="vehicle_77" depart="4.80" departLane="road0_0" departPos="4.10" departPosLat="0.00" departSpeed="3.48" departDelay="1.85" arrival="21.20" arrivalLane="-road3_0" arrivalPos="19.96" arrivalPosLat="0.00" arrivalSpeed="12.54" duration="16.40" routeLength="122.77" waitingTime="0.00" waitingCount="0" stopTime="0.00" timeLoss="6.06" rerouteNo="0" devices="tripinfo_vehicle_77 emissions_vehicle_77 battery_vehicle_77" vType="human" speedFactor="0.98" vaporized="">
        <emissions CO_abs="0" CO2_abs="0" HC_abs="0" PMx_abs="0" NOx_abs="0" fuel_abs="0" electricity_abs="59.599244"/>
    </tripinfo>
    <tripinfo id="vehicle_88" depart="0.40" departLane="road3_0" departPos="4.10" departPosLat="0.00" departSpeed="9.75" departDelay="0.09" arrival="21.60" arrivalLane="-road1_0" arrivalPos="19.96" arrivalPosLat="0.00" arrivalSpeed="12.14" duration="21.20" routeLength="206.37" waitingTime="0.00" waitingCount="0" stopTime="0.00" timeLoss="5.03" rerouteNo="1" devices="tripinfo_vehicle_88 routing_vehicle_88 emissions_vehicle_88 battery_vehicle_88" vType="human" speedFactor="1.01" vaporized="">
        <emissions CO_abs="0" CO2_abs="0" HC_abs="0" PMx_abs="0" NOx_abs="0" fuel_abs="0" electricity_abs="59.221099"/>
    </tripinfo>
    <tripinfo id="vehicle_81" depart="5.20" departLane="road1_0" departPos="4.10" departPosLat="0.00" departSpeed="3.53" departDelay="0.38" arrival="22.00" arrivalLane="-road0_0" arrivalPos="19.96" arrivalPosLat="0.00" arrivalSpeed="13.52" duration="16.80" routeLength="122.77" waitingTime="0.00" waitingCount="0" stopTime="0.00" timeLoss="6.38" rerouteNo="1" devices="tripinfo_vehicle_81 routing_vehicle_81 emissions_vehicle_81 battery_vehicle_81" vType="human" speedFactor="1.00" vaporized="">
        <emissions CO_abs="0" CO2_abs="0" HC_abs="0" PMx_abs="0" NOx_abs="0" fuel_abs="0" electricity_abs="66.548013"/>
    </tripinfo>
    <tripinfo id="vehicle_38" depart="3.20" departLane="road3_0" departPos="4.10" departPosLat="0.00" departSpeed="1.16" departDelay="0.55" arrival="25.20" arrivalLane="-road1_0" arrivalPos="19.96" arrivalPosLat="0.00" arrivalSpeed="12.09" duration="22.00" routeLength="206.37" waitingTime="0.00" waitingCount="0" stopTime="0.00" timeLoss="5.78" rerouteNo="1" devices="tripinfo_vehicle_38 routing_vehicle_38 emissions_vehicle_38 battery_vehicle_38" vType="human" speedFactor="1.10" vaporized="">
        <emissions CO_abs="0" CO2_abs="0" HC_abs="0" PMx_abs="0" NOx_abs="0" fuel_abs="0" electricity_abs="83.927924"/>
    </tripinfo>
    <tripinfo id="vehicle_48" depart="1.20" departLane="road0_0" departPos="4.10" departPosLat="0.00" departSpeed="5.12" departDelay="1.00" arrival="25.60" arrivalLane="-road2_0" arrivalPos="19.96" arrivalPosLat="0.00" arrivalSpeed="11.42" duration="24.40" routeLength="206.37" waitingTime="0.00" waitingCount="0" stopTime="0.00" timeLoss="5.79" rerouteNo="0" devices="tripinfo_vehicle_48 emissions_vehicle_48 battery_vehicle_48" vType="human" speedFactor="0.88" vaporized="">
        <emissions CO_abs="0" CO2_abs="0" HC_abs="0" PMx_abs="0" NOx_abs="0" fuel_abs="0" electricity_abs="65.197437"/>
    </tripinfo>
    <tripinfo id="vehicle_46" depart="3.20" departLane="road1_0" departPos="4.10" departPosLat="0.00" departSpeed="1.56" departDelay="0.99" arrival="26.40" arrivalLane="-road3_0" arrivalPos="19.96" arrivalPosLat="0.00" arrivalSpeed="13.70" duration="23.20" routeLength="206.37" waitingTime="0.00" waitingCount="0" stopTime="0.00" timeLoss="6.54" rerouteNo="1" devices="tripinfo_vehicle_46 routing_vehicle_46 emissions_vehicle_46 battery_vehicle_46" vType="human" speedFactor="1.00" vaporized="">
        <emissions CO_abs="0" CO2_abs="0" HC_abs="0" PMx_abs="0" NOx_abs="0" fuel_abs="0" electricity_abs="91.988419"/>
    </tripinfo>
    <tripinfo id="vehicle_35" depart="1.60" departLane="road2_0" departPos="4.10" departPosLat="0.00" departSpeed="3.63" departDelay="0.52" arrival="27.20" arrivalLane="-road0_0" arrivalPos="19.96" arrivalPosLat="0.00" arrivalSpeed="12.41" duration="25.60" routeLength="206.37" waitingTime="0.00" waitingCount="0" stopTime="0.00" timeLoss="9.24" rerouteNo="1" devices="tripinfo_vehicle_35 routing_vehicle_35 emissions_vehicle_35 battery_vehicle_35" vType="human" speedFactor="1.02" vaporized="">
        <emissions CO_abs="0" CO2_abs="0" HC_abs="0" PMx_abs="0" NOx_abs="0" fuel_abs="0" electricity_abs="76.252459"/>
    </tripinfo>
    <tripinfo id="vehicle_60" depart="5.20" departLane="road3_0" departPos="4.10" departPosLat="0.00" departSpeed="3.36" departDelay="2.28" arrival="28.00" arrivalLane="-road1_0" arrivalPos="19.96" arrivalPosLat="0.00" arrivalSpeed="12.42" duration="22.80" routeLength="206.37" waitingTime="0.00" waitingCount="0" stopTime="0.00" timeLoss="6.54" rerouteNo="1" devices="tripinfo_vehicle_60 routing_vehicle_60 emissions_vehicle_60 battery_vehicle_60" vType="human" speedFactor="1.08" vaporized="">
        <emissions CO_abs="0" CO2_abs="0" HC_abs="0" PMx_abs="0" NOx_abs="0" fuel_abs="0" electricity_abs="82.361522"/>
    </tripinfo>
    <tripinfo id="vehicle_14" depart="7.20" departLane="road3_0" departPos="4.10" departPosLat="0.00" departSpeed="2.43" departDelay="3.68" arrival="29.20" arrivalLane="-road2_0" arrivalPos="19.96" arrivalPosLat="0.00" arrivalSpeed="11.81" duration="22.00" routeLength="122.77" waitingTime="2.80" waitingCount="1" stopTime="0.00" timeLoss="11.51" rerouteNo="1" devices="tripinfo_vehicle_14 routing_vehicle_14 emissions_vehicle_14 battery_vehicle_14" vType="human" speedFactor="0.99" vaporized="">
        <emissions CO_abs="0" CO2_abs="0" HC_abs="0" PMx_abs="0" NOx_abs="0" fuel_abs="0" electricity_abs="58.859445"/>
    </tripinfo>
    <tripinfo id="vehicle_3" depart="7.20" departLane="road1_0" departPos="4.10" departPosLat="0.00" departSpeed="1.94" departDelay="1.46" arrival="31.60" arrivalLane="-road3_0" arrivalPos="19.96" arrivalPosLat="0.00" arrivalSpeed="12.54" duration="24.40" routeLength="206.37" waitingTime="0.00" waitingCount="0" stopTime="0.00" timeLoss="8.03" rerouteNo="1" devices="tripinfo_vehicle_3 routing_vehicle_3 emissions_vehicle_3 battery_vehicle_3" vType="human" speedFactor="1.08" vaporized="">
        <emissions CO_abs="0" CO2_abs="0" HC_abs="0" PMx_abs="0" NOx_abs="0" fuel_abs="0" electricity_abs="80.946476"/>
    </tripinfo>
    <tripinfo id="vehicle_87" depart="12.00" departLane="road3_0" departPos="4.10" departPosLat="0.00" departSpeed="1.40" departDelay="7.33" arrival="33.20" arrivalLane="-road2_0" arrivalPos="19.96" arrivalPosLat="0.00" arrivalSpeed="12.02" duration="21.20" routeLength="122.77" waitingTime="1.20" waitingCount="1" stopTime="0.00" timeLoss="10.73" rerouteNo="1" devices="tripinfo_vehicle_87 routing_vehicle_87 emissions_vehicle_87 battery_vehicle_87" vType="human" speedFactor="1.04" vaporized="">
        <emissions CO_abs="0" CO2_abs="0" HC_abs="0" PMx_abs="0" NOx_abs="0" fuel_abs="0" electricity_abs="61.048201"/>
    </tripinfo>
    <tripinfo id="vehicle_91" depart="1.60" departLane="road3_0" departPos="4.10" departPosLat="0.00" departSpeed="5.40" departDelay="0.06" arrival="33.60" arrivalLane="-road0_0" arrivalPos="19.96" arrivalPosLat="0.00" arrivalSpeed="11.39" duration="32.00" routeLength="289.97" waitingTime="0.00" waitingCount="0" stopTime="0.00" timeLoss="6.62" rerouteNo="1" devices="tripinfo_vehicle_91 routing_vehicle_91 emissions_vehicle_91 battery_vehicle_91" vType="human" speedFactor="0.89" vaporized="">
        <emissions CO_abs="0" CO2_abs="0" HC_abs="0" PMx_abs="0" NOx_abs="0" fuel_abs="0" electricity_abs="81.187989"/>
    </tripinfo>
    <tripinfo id="vehicle_2" depart="13.20" departLane="road1_0" departPos="4.10" departPosLat="0.00" departSpeed="1.15" departDelay="4.66" arrival="36.40" arrivalLane="-road0_0" arrivalPos="19.96" arrivalPosLat="0.00" arrivalSpeed="12.39" duration="23.20" routeLength="122.77" waitingTime="0.00" waitingCount="0" stopTime="0.00" timeLoss="12.88" rerouteNo="1" devices="tripinfo_vehicle_2 routing_vehicle_2 emissions_vehicle_2 battery_vehicle_2" vType="human" speedFactor="1.01" vaporized="">
        <emissions CO_abs="0" CO2_abs="0" HC_abs="0" PMx_abs="0" NOx_abs="0" fuel_abs="0" electricity_abs="59.912467"/>
    </tripinfo>
    <tripinfo id="vehicle_89" depart="6.80" departLane="road0_0" departPos="4.10" departPosLat="0.00" departSpeed="2.03" departDelay="2.77" arrival="36.40" arrivalLane="-road1_0" arrivalPos="19.96" arrivalPosLat="0.00" arrivalSpeed="13.10" duration="29.60" routeLength="289.97" waitingTime="0.00" waitingCount="0" stopTime="0.00" timeLoss="7.22" rerouteNo="0" devices="tripinfo_vehicle_89 emissions_vehicle_89 battery_vehicle_89" vType="human" speedFactor="1.02" vaporized="">
        <emissions CO_abs="0" CO2_abs="0" HC_abs="0" PMx_abs="0" NOx_abs="0" fuel_abs="0" electricity_abs="105.614702"/>
    </tripinfo>
    <tripinfo id="vehicle_64" depart="4.40" departLane="road2_0" departPos="4.10" departPosLat="0.00" departSpeed="5.05" departDelay="0.25" arrival="39.20" arrivalLane="-road0_0" arrivalPos="19.96" arrivalPosLat="0.00" arrivalSpeed="11.98" duration="34.80" routeLength="206.37" waitingTime="9.20" waitingCount="1" stopTime="0.00" timeLoss="17.38" rerouteNo="1" devices="tripinfo_vehicle_64 routing_vehicle_64 emissions_vehicle_64 battery_vehicle_64" vType="human" speedFactor="0.94" vaporized="">
        <emissions CO_abs="0" CO2_abs="0" HC_abs="0" PMx_abs="0" NOx_abs="0" fuel_abs="0" electricity_abs="71.151735"/>
    </tripinfo>
    <tripinfo id="vehicle_49" depart="20.80" departLane="road2_0" departPos="4.10" departPosLat="0.00" departSpeed="1.37" departDelay="12.40" arrival="40.00" arrivalLane="-road1_0" arrivalPos="19.96" arrivalPosLat="0.00" arrivalSpeed="10.34" duration="19.20" routeLength="122.77" waitingTime="0.00" waitingCount="0" stopTime="0.00" timeLoss="7.06" rerouteNo="1" devices="tripinfo_vehicle_49 routing_vehicle_49 emissions_vehicle_49 battery_vehicle_49" vType="human" speedFactor="0.85" vaporized="">
        <emissions CO_abs="0" CO2_abs="0" HC_abs="0" PMx_abs="0" NOx_abs="0" fuel_abs="0" electricity_abs="47.249602"/>
    </tripinfo>
    <tripinfo id="vehicle_74" depart="5.60" departLane="road2_0" departPos="4.10" departPosLat="0.00" departSpeed="2.96" departDelay="1.58" arrival="41.60" arrivalLane="-road0_0" arrivalPos="19.96" arrivalPosLat="0.00" arrivalSpeed="12.22" duration="36.00" routeLength="206.37" waitingTime="7.20" waitingCount="1" stopTime="0.00" timeLoss="19.15" rerouteNo="1" devices="tripinfo_vehicle_74 routing_vehicle_74 emissions_vehicle_74 battery_vehicle_74" vType="human" speedFactor="0.96" vaporized="">
        <emissions CO_abs="0" CO2_abs="0" HC_abs="0" PMx_abs="0" NOx_abs="0" fuel_abs="0" electricity_abs="77.563203"/>
    </tripinfo>
    <tripinfo id="vehicle_114" depart="8.80" departLane="road0_0" departPos="4.10" departPosLat="0.00" departSpeed="2.76" departDelay="3.96" arrival="42.40" arrivalLane="-road3_0" arrivalPos="19.96" arrivalPosLat="0.00" arrivalSpeed="13.11" duration="33.60" routeLength="122.77" waitingTime="15.20" waitingCount="1" stopTime="0.00" timeLoss="23.28" rerouteNo="0" devices="tripinfo_vehicle_114 emissions_vehicle_114 battery_vehicle_114" vType="human" speedFactor="1.10" vaporized="">
        <emissions CO_abs="0" CO2_abs="0" HC_abs="0" PMx_abs="0" NOx_abs="0" fuel_abs="0" electricity_abs="68.800865"/>
    </tripinfo>
    <tripinfo id="vehicle_72" depart="18.80" departLane="road3_0" departPos="4.10" departPosLat="0.00" departSpeed="1.50" departDelay="13.72" arrival="44.00" arrivalLane="-road1_0" arrivalPos="19.96" arrivalPosLat="0.00" arrivalSpeed="11.28" duration="25.20" routeLength="206.37" waitingTime="0.00" waitingCount="0" stopTime="0.00" timeLoss="7.74" rerouteNo="1" devices="tripinfo_vehicle_72 routing_vehicle_72 emissions_vehicle_72 battery_vehicle_72" vType="human" speedFactor="0.94" vaporized="">
        <emissions CO_abs="0" CO2_abs="0" HC_abs="0" PMx_abs="0" NOx_abs="0" fuel_abs="0" electricity_abs="72.266350"/>
    </tripinfo>
    <tripinfo id="vehicle_94" depart="8.00" departLane="road2_0" departPos="4.10" departPosLat="0.00" departSpeed="1.32" departDelay="2.26" arrival="44.00" arrivalLane="-road0_0" arrivalPos="19.96" arrivalPosLat="0.00" arrivalSpeed="13.29" duration="36.00" routeLength="206.37" waitingTime="6.80" waitingCount="1" stopTime="0.00" timeLoss="19.48" rerouteNo="1" devices="tripinfo_vehicle_94 routing_vehicle_94 emissions_vehicle_94 battery_vehicle_94" vType="human" speedFactor="1.09" vaporized="">
        <emissions CO_abs="0" CO2_abs="0" HC_abs="0" PMx_abs="0" NOx_abs="0" fuel_abs="0" electricity_abs="87.779930"/>
    </tripinfo>
    <tripinfo id="vehicle_99" depart="23.20" departLane="road3_0" departPos="4.10" departPosLat="0.00" departSpeed="2.40" departDelay="15.47" arrival="46.00" arrivalLane="-road1_0" arrivalPos="19.96" arrivalPosLat="0.00" arrivalSpeed="11.91" duration="22.80" routeLength="206.37" waitingTime="0.00" waitingCount="0" stopTime="0.00" timeLoss="6.82" rerouteNo="1" devices="tripinfo_vehicle_99 routing_vehicle_99 emissions_vehicle_99 battery_vehicle_99" vType="human" speedFactor="1.10" vaporized="">
        <emissions CO_abs="0" CO2_abs="0" HC_abs="0" PMx_abs="0" NOx_abs="0" fuel_abs="0" electricity_abs="80.606871"/>
    </tripinfo>
    <tripinfo id="vehicle_103" depart="9.60" departLane="road3_0" departPos="4.10" departPosLat="0.00" departSpeed="1.60" departDelay="5.64" arrival="46.80" arrivalLane="-road0_0" arrivalPos="19.96" arrivalPosLat="0.00" arrivalSpeed="11.79" duration="37.20" routeLength="289.97" waitingTime="2.40" waitingCount="1" stopTime="0.00" timeLoss="13.69" rerouteNo="1" devices="tripinfo_vehicle_103 routing_vehicle_103 emissions_vehicle_103 battery_vehicle_103" vType="human" speedFactor="0.95" vaporized="">
        <emissions CO_abs="0" CO2_abs="0" HC_abs="0" PMx_abs="0" NOx_abs="0" fuel_abs="0" electricity_abs="92.376781"/>
    </tripinfo>
    <tripinfo id="vehicle_27" depart="13.20" departLane="road0_0" departPos="4.10" departPosLat="0.00" departSpeed="2.31" departDelay="3.85" arrival="47.60" arrivalLane="-road3_0" arrivalPos="19.96" arrivalPosLat="0.00" arrivalSpeed="12.09" duration="34.40" routeLength="122.77" waitingTime="13.60" waitingCount="1" stopTime="0.00" timeLoss="23.43" rerouteNo="0" devices="tripinfo_vehicle_27 emissions_vehicle_27 battery_vehicle_27" vType="human" speedFactor="0.95" vaporized="">
        <emissions CO_abs="0" CO2_abs="0" HC_abs="0" PMx_abs="0" NOx_abs="0" fuel_abs="0" electricity_abs="60.093381"/>
    </tripinfo>
    <tripinfo id="vehicle_56" depart="32.40" departLane="road0_0" departPos="4.10" departPosLat="0.00" departSpeed="1.58" departDelay="22.60" arrival="50.00" arrivalLane="-road3_0" arrivalPos="19.96" arrivalPosLat="0.00" arrivalSpeed="12.33" duration="17.60" routeLength="122.77" waitingTime="0.00" waitingCount="0" stopTime="0.00" timeLoss="6.27" rerouteNo="0" devices="tripinfo_vehicle_56 emissions_vehicle_56 battery_vehicle_56" vType="human" speedFactor="0.90" vaporized="">
        <emissions CO_abs="0" CO2_abs="0" HC_abs="0" PMx_abs="0" NOx_abs="0" fuel_abs="0" electricity_abs="60.913442"/>
    </tripinfo>
    <tripinfo id="vehicle_7" depart="20.00" departLane="road1_0" departPos="4.10" departPosLat="0.00" departSpeed="0.97" departDelay="11.47" arrival="50.40" arrivalLane="-road0_0" arrivalPos="19.96" arrivalPosLat="0.00" arrivalSpeed="10.92" duration="30.40" routeLength="122.77" waitingTime="9.60" waitingCount="1" stopTime="0.00" timeLoss="18.59" rerouteNo="1" devices="tripinfo_vehicle_7 routing_vehicle_7 emissions_vehicle_7 battery_vehicle_7" vType="human" speedFactor="0.89" vaporized="">
        <emissions CO_abs="0" CO2_abs="0" HC_abs="0" PMx_abs="0" NOx_abs="0" fuel_abs="0" electricity_abs="50.499326"/>
    </tripinfo>
    <tripinfo id="vehicle_30" depart="34.80" departLane="road0_0" departPos="4.10" departPosLat="0.00" departSpeed="2.63" departDelay="24.14" arrival="52.00" arrivalLane="-road3_0" arrivalPos="19.96" arrivalPosLat="0.00" arrivalSpeed="12.15" duration="17.20" routeLength="122.77" waitingTime="0.00" waitingCount="0" stopTime="0.00" timeLoss="7.09" rerouteNo="0" devices="tripinfo_vehicle_30 emissions_vehicle_30 battery_vehicle_30" vType="human" speedFactor="1.18" vaporized="">
        <emissions CO_abs="0" CO2_abs="0" HC_abs="0" PMx_abs="0" NOx_abs="0" fuel_abs="0" electricity_abs="60.993002"/>
    </tripinfo>
    <tripinfo id="vehicle_102" depart="9.20" departLane="road1_0" departPos="4.10" departPosLat="0.00" departSpeed="2.64" departDelay="3.06" arrival="52.00" arrivalLane="-road2_0" arrivalPos="19.96" arrivalPosLat="0.00" arrivalSpeed="12.01" duration="42.80" routeLength="289.97" waitingTime="7.60" waitingCount="2" stopTime="0.00" timeLoss="19.64" rerouteNo="1" devices="tripinfo_vehicle_102 routing_vehicle_102 emissions_vehicle_102 battery_vehicle_102" vType="human" speedFactor="0.97" vaporized="">
        <emissions CO_abs="0" CO2_abs="0" HC_abs="0" PMx_abs="0" NOx_abs="0" fuel_abs="0" electricity_abs="97.700517"/>
    </tripinfo>
    <tripinfo id="vehicle_15" depart="21.20" departLane="road3_0" departPos="4.10" departPosLat="0.00" departSpeed="1.79" departDelay="15.49" arrival="54.40" arrivalLane="-road0_0" arrivalPos="19.96" arrivalPosLat="0.00" arrivalSpeed="12.21" duration="33.20" routeLength="289.97" waitingTime="0.00" waitingCount="0" stopTime="0.00" timeLoss="9.09" rerouteNo="1" devices="tripinfo_vehicle_15 routing_vehicle_15 emissions_vehicle_15 battery_vehicle_15" vType="human" speedFactor="0.93" vaporized="">
        <emissions CO_abs="0" CO2_abs="0" HC_abs="0" PMx_abs="0" NOx_abs="0" fuel_abs="0" electricity_abs="93.221107"/>
    </tripinfo>
    <tripinfo id="vehicle_62" depart="37.20" departLane="road0_0" departPos="4.10" departPosLat="0.00" departSpeed="3.19" departDelay="26.06" arrival="54.80" arrivalLane="-road3_0" arrivalPos="19.96" arrivalPosLat="0.00" arrivalSpeed="11.94" duration="17.60" routeLength="122.77" waitingTime="0.00" waitingCount="0" stopTime="0.00" timeLoss="7.35" rerouteNo="0" devices="tripinfo_vehicle_62 emissions_vehicle_62 battery_vehicle_62" vType="human" speedFactor="1.02" vaporized="">
        <emissions CO_abs="0" CO2_abs="0" HC_abs="0" PMx_abs="0" NOx_abs="0" fuel_abs="0" electricity_abs="55.309813"/>
    </tripinfo>
    <tripinfo id="vehicle_39" depart="27.60" departLane="road3_0" departPos="4.10" departPosLat="0.00" departSpeed="2.86" departDelay="16.97" arrival="56.40" arrivalLane="-road1_0" arrivalPos="19.96" arrivalPosLat="0.00" arrivalSpeed="11.60" duration="28.80" routeLength="206.37" waitingTime="0.00" waitingCount="0" stopTime="0.00" timeLoss="10.74" rerouteNo="1" devices="tripinfo_vehicle_39 routing_vehicle_39 emissions_vehicle_39 battery_vehicle_39" vType="human" speedFactor="0.90" vaporized="">
        <emissions CO_abs="0" CO2_abs="0" HC_abs="0" PMx_abs="0" NOx_abs="0" fuel_abs="0" electricity_abs="69.307201"/>
    </tripinfo>
    <tripinfo id="vehicle_90" depart="11.20" departLane="road1_0" departPos="4.10" departPosLat="0.00" departSpeed="2.97" departDelay="3.54" arrival="56.40" arrivalLane="-road2_0" arrivalPos="19.96" arrivalPosLat="0.00" arrivalSpeed="11.70" duration="45.20" routeLength="289.97" waitingTime="1.60" waitingCount="2" stopTime="0.00" timeLoss="23.01" rerouteNo="1" devices="tripinfo_vehicle_90 routing_vehicle_90 emissions_vehicle_90 battery_vehicle_90" vType="human" speedFactor="1.02" vaporized="">
        <emissions CO_abs="0" CO2_abs="0" HC_abs="0" PMx_abs="0" NOx_abs="0" fuel_abs="0" electricity_abs="86.617457"/>
    </tripinfo>
    <tripinfo id="vehicle_12" depart="25.60" departLane="road3_0" departPos="4.10" departPosLat="0.00" departSpeed="1.97" departDelay="15.72" arrival="58.40" arrivalLane="-road0_0" arrivalPos="19.96" arrivalPosLat="0.00" arrivalSpeed="12.45" duration="32.80" routeLength="289.97" waitingTime="0.80" waitingCount="1" stopTime="0.00" timeLoss="10.52" rerouteNo="1" devices="tripinfo_vehicle_12 routing_vehicle_12 emissions_vehicle_12 battery_vehicle_12" vType="human" speedFactor="1.05" vaporized="">
        <emissions CO_abs="0" CO2_abs="0" HC_abs="0" PMx_abs="0" NOx_abs="0" fuel_abs="0" electricity_abs="103.416957"/>
    </tripinfo>
    <tripinfo id="vehicle_76" depart="33.60" departLane="road3_0" departPos="4.10" departPosLat="0.00" departSpeed="2.92" departDelay="19.13" arrival="58.80" arrivalLane="-road2_0" arrivalPos="19.96" arrivalPosLat="0.00" arrivalSpeed="12.07" duration="25.20" routeLength="122.77" waitingTime="0.00" waitingCount="0" stopTime="0.00" timeLoss="14.61" rerouteNo="1" devices="tripinfo_vehicle_76 routing_vehicle_76 emissions_vehicle_76 battery_vehicle_76" vType="human" speedFactor="1.03" vaporized="">
        <emissions CO_abs="0" CO2_abs="0" HC_abs="0" PMx_abs="0" NOx_abs="0" fuel_abs="0" electricity_abs="53.186272"/>
    </tripinfo>
    <tripinfo id="vehicle_53" depart="22.80" departLane="road1_0" departPos="4.10" departPosLat="0.00" departSpeed="2.27" departDelay="14.28" arrival="60.80" arrivalLane="-road3_0" arrivalPos="19.96" arrivalPosLat="0.00" arrivalSpeed="12.15" duration="38.00" routeLength="206.37" waitingTime="7.60" waitingCount="1" stopTime="0.00" timeLoss="21.61" rerouteNo="1" devices="tripinfo_vehicle_53 routing_vehicle_53 emissions_vehicle_53 battery_vehicle_53" vType="human" speedFactor="1.10" vaporized="">
        <emissions CO_abs="0" CO2_abs="0" HC_abs="0" PMx_abs="0" NOx_abs="0" fuel_abs="0" electricity_abs="74.461044"/>
    </tripinfo>
    <tripinfo id="vehicle_26" depart="29.60" departLane="road3_0" departPos="4.10" departPosLat="0.00" departSpeed="3.02" departDelay="16.62" arrival="61.20" arrivalLane="-road1_0" arrivalPos="19.96" arrivalPosLat="0.00" arrivalSpeed="12.04" duration="31.60" routeLength="206.37" waitingTime="0.00" waitingCount="0" stopTime="0.00" timeLoss="13.91" rerouteNo="1" devices="tripinfo_vehicle_26 routing_vehicle_26 emissions_vehicle_26 battery_vehicle_26" vType="human" speedFactor="0.92" vaporized="">
        <emissions CO_abs="0" CO2_abs="0" HC_abs="0" PMx_abs="0" NOx_abs="0" fuel_abs="0" electricity_abs="70.839432"/>
    </tripinfo>
    <tripinfo id="vehicle_119" depart="40.80" departLane="road1_0" departPos="4.10" departPosLat="0.00" departSpeed="2.97" departDelay="28.33" arrival="61.20" arrivalLane="-road0_0" arrivalPos="19.96" arrivalPosLat="0.00" arrivalSpeed="12.89" duration="20.40" routeLength="122.77" waitingTime="0.00" waitingCount="0" stopTime="0.00" timeLoss="10.03" rerouteNo="1" devices="tripinfo_vehicle_119 routing_vehicle_119 emissions_vehicle_119 battery_vehicle_119" vType="human" speedFactor="1.07" vaporized="">
        <emissions CO_abs="0" CO2_abs="0" HC_abs="0" PMx_abs="0" NOx_abs="0" fuel_abs="0" electricity_abs="59.981631"/>
    </tripinfo>
    <tripinfo id="vehicle_79" depart="38.00" departLane="road3_0" departPos="4.10" departPosLat="0.00" departSpeed="2.82" departDelay="22.62" arrival="63.20" arrivalLane="-road2_0" arrivalPos="19.96" arrivalPosLat="0.00" arrivalSpeed="11.66" duration="25.20" routeLength="122.77" waitingTime="0.00" waitingCount="0" stopTime="0.00" timeLoss="14.99" rerouteNo="1" devices="tripinfo_vehicle_79 routing_vehicle_79 emissions_vehicle_79 battery_vehicle_79" vType="human" speedFactor="1.09" vaporized="">
        <emissions CO_abs="0" CO2_abs="0" HC_abs="0" PMx_abs="0" NOx_abs="0" fuel_abs="0" electricity_abs="50.196240"/>
    </tripinfo>
    <tripinfo id="vehicle_95" depart="42.80" departLane="road1_0" departPos="4.10" departPosLat="0.00" departSpeed="2.20" departDelay="27.20" arrival="63.60" arrivalLane="-road0_0" arrivalPos="19.96" arrivalPosLat="0.00" arrivalSpeed="13.35" duration="20.80" routeLength="122.77" waitingTime="0.00" waitingCount="0" stopTime="0.00" timeLoss="10.36" rerouteNo="1" devices="tripinfo_vehicle_95 routing_vehicle_95 emissions_vehicle_95 battery_vehicle_95" vType="human" speedFactor="1.06" vaporized="">
        <emissions CO_abs="0" CO2_abs="0" HC_abs="0" PMx_abs="0" NOx_abs="0" fuel_abs="0" electricity_abs="62.761274"/>
    </tripinfo>
    <tripinfo id="vehicle_18" depart="25.60" departLane="road2_0" departPos="4.10" departPosLat="0.00" departSpeed="1.56" departDelay="16.14" arrival="64.00" arrivalLane="-road1_0" arrivalPos="19.96" arrivalPosLat="0.00" arrivalSpeed="11.91" duration="38.40" routeLength="122.77" waitingTime="14.80" waitingCount="1" stopTime="0.00" timeLoss="27.28" rerouteNo="1" devices="tripinfo_vehicle_18 routing_vehicle_18 emissions_vehicle_18 battery_vehicle_18" vType="human" speedFactor="0.94" vaporized="">
        <emissions CO_abs="0" CO2_abs="0" HC_abs="0" PMx_abs="0" NOx_abs="0" fuel_abs="0" electricity_abs="55.992758"/>
    </tripinfo>
    <tripinfo id="vehicle_61" depart="42.00" departLane="road3_0" departPos="4.10" departPosLat="0.00" departSpeed="2.77" departDelay="23.14" arrival="65.20" arrivalLane="-road2_0" arrivalPos="19.96" arrivalPosLat="0.00" arrivalSpeed="12.90" duration="23.20" routeLength="122.77" waitingTime="0.00" waitingCount="0" stopTime="0.00" timeLoss="13.26" rerouteNo="1" devices="tripinfo_vehicle_61 routing_vehicle_61 emissions_vehicle_61 battery_vehicle_61" vType="human" speedFactor="1.12" vaporized="">
        <emissions CO_abs="0" CO2_abs="0" HC_abs="0" PMx_abs="0" NOx_abs="0" fuel_abs="0" electricity_abs="57.719625"/>
    </tripinfo>
    <tripinfo id="vehicle_34" depart="45.20" departLane="road1_0" departPos="4.10" departPosLat="0.00" departSpeed="3.02" departDelay="28.82" arrival="66.00" arrivalLane="-road0_0" arrivalPos="19.96" arrivalPosLat="0.00" arrivalSpeed="12.71" duration="20.80" routeLength="122.77" waitingTime="0.00" waitingCount="0" stopTime="0.00" timeLoss="10.31" rerouteNo="1" devices="tripinfo_vehicle_34 routing_vehicle_34 emissions_vehicle_34 battery_vehicle_34" vType="human" speedFactor="0.99" vaporized="">