<?xml version="1.0" encoding="UTF-8"?>

<!-- generated on 2025-05-29 08:54:53 by Eclipse SUMO sumo Version v1_20_0+0085-e155ab8699b
<configuration xmlns:xsi="http://www.w3.org/2001/XMLSchema-instance" xsi:noNamespaceSchemaLocation="http://sumo.dlr.de/xsd/sumoConfiguration.xsd">

    <input>
        <net-file value="../networks/roundabout.net.xml"/>
        <route-files value="../networks/routes1.rou.xml"/>
    </input>

    <output>
        <output-prefix value="162-"/>
        <battery-output.precision value="4"/>
        <tripinfo-output value="../networks/output_data/output_kan/tripinfo/tripinfo-output.xml"/>
        <collision-output value="../networks/output_data/output_kan/collision/collision-output.xml"/>
    </output>

    <time>
        <begin value="0"/>
        <step-length value="0.4"/>
    </time>

    <processing>
        <step-method.ballistic value="true"/>
        <lateral-resolution value="3.2"/>
        <collision.action value="warn"/>
        <collision.mingap-factor value="0"/>
        <time-to-teleport value="-1"/>
        <random-depart-offset value="5"/>
    </processing>

    <report>
        <no-warnings value="True"/>
        <no-step-log value="True"/>
    </report>

    <emissions>
        <device.emissions.probability value="1"/>
    </emissions>

    <battery>
        <device.battery.probability value="1"/>
    </battery>

    <traci_server>
        <remote-port value="53085"/>
    </traci_server>

    <gui_only>
        <quit-on-end value="True"/>
        <start value="True"/>
    </gui_only>

</configuration>
-->

<tripinfos xmlns:xsi="http://www.w3.org/2001/XMLSchema-instance" xsi:noNamespaceSchemaLocation="http://sumo.dlr.de/xsd/tripinfo_file.xsd">
    <tripinfo id="vehicle_58" depart="0.80" departLane="road1_0" departPos="4.10" departPosLat="0.00" departSpeed="9.48" departDelay="0.09" arrival="14.80" arrivalLane="-road0_0" arrivalPos="19.96" arrivalPosLat="0.00" arrivalSpeed="13.01" duration="14.00" routeLength="122.77" waitingTime="0.00" waitingCount="0" stopTime="0.00" timeLoss="3.69" rerouteNo="1" devices="tripinfo_vehicle_58 routing_vehicle_58 emissions_vehicle_58 battery_vehicle_58" vType="human" speedFactor="1.02" vaporized="">
        <emissions CO_abs="0" CO2_abs="0" HC_abs="0" PMx_abs="0" NOx_abs="0" fuel_abs="0" electricity_abs="47.228889"/>
    </tripinfo>
    <tripinfo id="vehicle_95" depart="0.80" departLane="road0_0" departPos="4.10" departPosLat="0.00" departSpeed="9.75" departDelay="0.11" arrival="15.20" arrivalLane="-road3_0" arrivalPos="19.96" arrivalPosLat="0.00" arrivalSpeed="11.99" duration="14.40" routeLength="122.77" waitingTime="0.00" waitingCount="0" stopTime="0.00" timeLoss="3.90" rerouteNo="0" devices="tripinfo_vehicle_95 emissions_vehicle_95 battery_vehicle_95" vType="human" speedFactor="1.06" vaporized="">
        <emissions CO_abs="0" CO2_abs="0" HC_abs="0" PMx_abs="0" NOx_abs="0" fuel_abs="0" electricity_abs="39.357142"/>
    </tripinfo>
    <tripinfo id="vehicle_31" depart="5.20" departLane="road0_0" departPos="4.10" departPosLat="0.00" departSpeed="3.51" departDelay="1.86" arrival="20.80" arrivalLane="-road3_0" arrivalPos="19.96" arrivalPosLat="0.00" arrivalSpeed="12.86" duration="15.60" routeLength="122.77" waitingTime="0.00" waitingCount="0" stopTime="0.00" timeLoss="5.57" rerouteNo="0" devices="tripinfo_vehicle_31 emissions_vehicle_31 battery_vehicle_31" vType="human" speedFactor="1.15" vaporized="">
        <emissions CO_abs="0" CO2_abs="0" HC_abs="0" PMx_abs="0" NOx_abs="0" fuel_abs="0" electricity_abs="64.567361"/>
    </tripinfo>
    <tripinfo id="vehicle_108" depart="1.60" departLane="road2_0" departPos="4.10" departPosLat="0.00" departSpeed="9.75" departDelay="0.15" arrival="22.00" arrivalLane="-road0_0" arrivalPos="19.96" arrivalPosLat="0.00" arrivalSpeed="12.66" duration="20.40" routeLength="206.37" waitingTime="0.00" waitingCount="0" stopTime="0.00" timeLoss="4.29" rerouteNo="1" devices="tripinfo_vehicle_108 routing_vehicle_108 emissions_vehicle_108 battery_vehicle_108" vType="human" speedFactor="1.06" vaporized="">
        <emissions CO_abs="0" CO2_abs="0" HC_abs="0" PMx_abs="0" NOx_abs="0" fuel_abs="0" electricity_abs="64.703890"/>
    </tripinfo>
    <tripinfo id="vehicle_6" depart="1.60" departLane="road0_0" departPos="4.10" departPosLat="0.00" departSpeed="5.40" departDelay="0.19" arrival="24.00" arrivalLane="-road2_0" arrivalPos="19.96" arrivalPosLat="0.00" arrivalSpeed="12.78" duration="22.40" routeLength="206.37" waitingTime="0.00" waitingCount="0" stopTime="0.00" timeLoss="6.27" rerouteNo="0" devices="tripinfo_vehicle_6 emissions_vehicle_6 battery_vehicle_6" vType="human" speedFactor="1.05" vaporized="">
        <emissions CO_abs="0" CO2_abs="0" HC_abs="0" PMx_abs="0" NOx_abs="0" fuel_abs="0" electricity_abs="79.217741"/>
    </tripinfo>
    <tripinfo id="vehicle_69" depart="1.60" departLane="road1_0" departPos="4.10" departPosLat="0.00" departSpeed="3.06" departDelay="0.33" arrival="24.00" arrivalLane="-road3_0" arrivalPos="19.96" arrivalPosLat="0.00" arrivalSpeed="12.90" duration="22.40" routeLength="206.37" waitingTime="0.00" waitingCount="0" stopTime="0.00" timeLoss="6.04" rerouteNo="1" devices="tripinfo_vehicle_69 routing_vehicle_69 emissions_vehicle_69 battery_vehicle_69" vType="human" speedFactor="1.02" vaporized="">
        <emissions CO_abs="0" CO2_abs="0" HC_abs="0" PMx_abs="0" NOx_abs="0" fuel_abs="0" electricity_abs="84.090345"/>
    </tripinfo>
    <tripinfo id="vehicle_59" depart="6.40" departLane="road3_0" departPos="4.10" departPosLat="0.00" departSpeed="2.54" departDelay="2.95" arrival="28.40" arrivalLane="-road2_0" arrivalPos="19.96" arrivalPosLat="0.00" arrivalSpeed="11.35" duration="22.00" routeLength="122.77" waitingTime="3.60" waitingCount="1" stopTime="0.00" timeLoss="11.39" rerouteNo="1" devices="tripinfo_vehicle_59 routing_vehicle_59 emissions_vehicle_59 battery_vehicle_59" vType="human" speedFactor="0.97" vaporized="">
        <emissions CO_abs="0" CO2_abs="0" HC_abs="0" PMx_abs="0" NOx_abs="0" fuel_abs="0" electricity_abs="55.676565"/>
    </tripinfo>
    <tripinfo id="vehicle_71" depart="1.60" departLane="road3_0" departPos="4.10" departPosLat="0.00" departSpeed="9.75" departDelay="0.28" arrival="29.60" arrivalLane="-road0_0" arrivalPos="19.96" arrivalPosLat="0.00" arrivalSpeed="12.17" duration="28.00" routeLength="289.97" waitingTime="0.00" waitingCount="0" stopTime="0.00" timeLoss="5.11" rerouteNo="1" devices="tripinfo_vehicle_71 routing_vehicle_71 emissions_vehicle_71 battery_vehicle_71" vType="human" speedFactor="0.97" vaporized="">
        <emissions CO_abs="0" CO2_abs="0" HC_abs="0" PMx_abs="0" NOx_abs="0" fuel_abs="0" electricity_abs="78.651192"/>
    </tripinfo>
    <tripinfo id="vehicle_36" depart="9.20" departLane="road0_0" departPos="4.10" departPosLat="0.00" departSpeed="2.71" departDelay="4.34" arrival="30.00" arrivalLane="-road3_0" arrivalPos="19.96" arrivalPosLat="0.00" arrivalSpeed="12.50" duration="20.80" routeLength="122.77" waitingTime="0.80" waitingCount="1" stopTime="0.00" timeLoss="10.01" rerouteNo="0" devices="tripinfo_vehicle_36 emissions_vehicle_36 battery_vehicle_36" vType="human" speedFactor="0.97" vaporized="">
        <emissions CO_abs="0" CO2_abs="0" HC_abs="0" PMx_abs="0" NOx_abs="0" fuel_abs="0" electricity_abs="62.221251"/>
    </tripinfo>
    <tripinfo id="vehicle_96" depart="6.00" departLane="road2_0" departPos="4.10" departPosLat="0.00" departSpeed="3.00" departDelay="3.04" arrival="30.40" arrivalLane="-road1_0" arrivalPos="19.96" arrivalPosLat="0.00" arrivalSpeed="12.62" duration="24.40" routeLength="122.77" waitingTime="6.40" waitingCount="1" stopTime="0.00" timeLoss="14.17" rerouteNo="1" devices="tripinfo_vehicle_96 routing_vehicle_96 emissions_vehicle_96 battery_vehicle_96" vType="human" speedFactor="1.01" vaporized="">
        <emissions CO_abs="0" CO2_abs="0" HC_abs="0" PMx_abs="0" NOx_abs="0" fuel_abs="0" electricity_abs="66.021131"/>
    </tripinfo>
    <tripinfo id="vehicle_105" depart="2.40" departLane="road2_0" departPos="4.10" departPosLat="0.00" departSpeed="3.63" departDelay="0.77" arrival="31.60" arrivalLane="-road3_0" arrivalPos="19.96" arrivalPosLat="0.00" arrivalSpeed="12.80" duration="29.20" routeLength="289.97" waitingTime="0.00" waitingCount="0" stopTime="0.00" timeLoss="6.94" rerouteNo="1" devices="tripinfo_vehicle_105 routing_vehicle_105 emissions_vehicle_105 battery_vehicle_105" vType="human" speedFactor="1.07" vaporized="">
        <emissions CO_abs="0" CO2_abs="0" HC_abs="0" PMx_abs="0" NOx_abs="0" fuel_abs="0" electricity_abs="103.861241"/>
    </tripinfo>
    <tripinfo id="vehicle_18" depart="4.40" departLane="road1_0" departPos="4.10" departPosLat="0.00" departSpeed="5.72" departDelay="0.05" arrival="34.00" arrivalLane="-road2_0" arrivalPos="19.96" arrivalPosLat="0.00" arrivalSpeed="12.63" duration="29.60" routeLength="289.97" waitingTime="0.00" waitingCount="0" stopTime="0.00" timeLoss="5.98" rerouteNo="1" devices="tripinfo_vehicle_18 routing_vehicle_18 emissions_vehicle_18 battery_vehicle_18" vType="human" speedFactor="0.94" vaporized="">
        <emissions CO_abs="0" CO2_abs="0" HC_abs="0" PMx_abs="0" NOx_abs="0" fuel_abs="0" electricity_abs="92.428740"/>
    </tripinfo>
    <tripinfo id="vehicle_48" depart="2.80" departLane="road3_0" departPos="4.10" departPosLat="0.00" departSpeed="4.67" departDelay="0.26" arrival="34.00" arrivalLane="-road0_0" arrivalPos="19.96" arrivalPosLat="0.00" arrivalSpeed="11.18" duration="31.20" routeLength="289.97" waitingTime="0.00" waitingCount="0" stopTime="0.00" timeLoss="6.08" rerouteNo="1" devices="tripinfo_vehicle_48 routing_vehicle_48 emissions_vehicle_48 battery_vehicle_48" vType="human" speedFactor="0.88" vaporized="">
        <emissions CO_abs="0" CO2_abs="0" HC_abs="0" PMx_abs="0" NOx_abs="0" fuel_abs="0" electricity_abs="81.977892"/>
    </tripinfo>
    <tripinfo id="vehicle_113" depart="11.20" departLane="road0_0" departPos="4.10" departPosLat="0.00" departSpeed="1.65" departDelay="5.60" arrival="34.40" arrivalLane="-road3_0" arrivalPos="19.96" arrivalPosLat="0.00" arrivalSpeed="11.85" duration="23.20" routeLength="122.77" waitingTime="0.00" waitingCount="0" stopTime="0.00" timeLoss="12.83" rerouteNo="0" devices="tripinfo_vehicle_113 emissions_vehicle_113 battery_vehicle_113" vType="human" speedFactor="1.01" vaporized="">
        <emissions CO_abs="0" CO2_abs="0" HC_abs="0" PMx_abs="0" NOx_abs="0" fuel_abs="0" electricity_abs="53.831094"/>
    </tripinfo>
    <tripinfo id="vehicle_16" depart="2.80" departLane="road0_0" departPos="4.10" departPosLat="0.00" departSpeed="2.74" departDelay="0.10" arrival="35.60" arrivalLane="-road1_0" arrivalPos="19.96" arrivalPosLat="0.00" arrivalSpeed="11.97" duration="32.80" routeLength="289.97" waitingTime="0.00" waitingCount="0" stopTime="0.00" timeLoss="7.29" rerouteNo="0" devices="tripinfo_vehicle_16 emissions_vehicle_16 battery_vehicle_16" vType="human" speedFactor="0.88" vaporized="">
        <emissions CO_abs="0" CO2_abs="0" HC_abs="0" PMx_abs="0" NOx_abs="0" fuel_abs="0" electricity_abs="90.560103"/>
    </tripinfo>
    <tripinfo id="vehicle_79" depart="6.80" departLane="road0_0" departPos="4.10" departPosLat="0.00" departSpeed="2.49" departDelay="2.38" arrival="36.00" arrivalLane="-road2_0" arrivalPos="19.96" arrivalPosLat="0.00" arrivalSpeed="12.31" duration="29.20" routeLength="206.37" waitingTime="1.60" waitingCount="1" stopTime="0.00" timeLoss="13.01" rerouteNo="0" devices="tripinfo_vehicle_79 emissions_vehicle_79 battery_vehicle_79" vType="human" speedFactor="1.09" vaporized="">
        <emissions CO_abs="0" CO2_abs="0" HC_abs="0" PMx_abs="0" NOx_abs="0" fuel_abs="0" electricity_abs="77.629249"/>
    </tripinfo>
    <tripinfo id="vehicle_20" depart="4.40" departLane="road3_0" departPos="4.10" departPosLat="0.00" departSpeed="2.87" departDelay="1.39" arrival="36.40" arrivalLane="-road0_0" arrivalPos="19.96" arrivalPosLat="0.00" arrivalSpeed="11.68" duration="32.00" routeLength="289.97" waitingTime="0.00" waitingCount="0" stopTime="0.00" timeLoss="9.43" rerouteNo="1" devices="tripinfo_vehicle_20 routing_vehicle_20 emissions_vehicle_20 battery_vehicle_20" vType="human" speedFactor="1.02" vaporized="">
        <emissions CO_abs="0" CO2_abs="0" HC_abs="0" PMx_abs="0" NOx_abs="0" fuel_abs="0" electricity_abs="94.645294"/>
    </tripinfo>
    <tripinfo id="vehicle_94" depart="4.00" departLane="road2_0" departPos="4.10" departPosLat="0.00" departSpeed="1.14" departDelay="1.06" arrival="36.40" arrivalLane="-road3_0" arrivalPos="19.96" arrivalPosLat="0.00" arrivalSpeed="12.26" duration="32.40" routeLength="289.97" waitingTime="0.00" waitingCount="0" stopTime="0.00" timeLoss="10.12" rerouteNo="1" devices="tripinfo_vehicle_94 routing_vehicle_94 emissions_vehicle_94 battery_vehicle_94" vType="human" speedFactor="1.09" vaporized="">
        <emissions CO_abs="0" CO2_abs="0" HC_abs="0" PMx_abs="0" NOx_abs="0" fuel_abs="0" electricity_abs="100.818787"/>
    </tripinfo>
    <tripinfo id="vehicle_12" depart="25.20" departLane="road0_0" departPos="4.10" departPosLat="0.00" departSpeed="2.18" departDelay="15.60" arrival="43.20" arrivalLane="-road3_0" arrivalPos="19.96" arrivalPosLat="0.00" arrivalSpeed="11.97" duration="18.00" routeLength="122.77" waitingTime="0.00" waitingCount="0" stopTime="0.00" timeLoss="7.29" rerouteNo="0" devices="tripinfo_vehicle_12 emissions_vehicle_12 battery_vehicle_12" vType="human" speedFactor="1.05" vaporized="">
        <emissions CO_abs="0" CO2_abs="0" HC_abs="0" PMx_abs="0" NOx_abs="0" fuel_abs="0" electricity_abs="57.955738"/>
    </tripinfo>
    <tripinfo id="vehicle_85" depart="16.80" departLane="road0_0" departPos="4.10" departPosLat="0.00" departSpeed="1.12" departDelay="10.88" arrival="44.80" arrivalLane="-road2_0" arrivalPos="19.96" arrivalPosLat="0.00" arrivalSpeed="11.65" duration="28.00" routeLength="206.37" waitingTime="0.00" waitingCount="0" stopTime="0.00" timeLoss="11.15" rerouteNo="0" devices="tripinfo_vehicle_85 emissions_vehicle_85 battery_vehicle_85" vType="human" speedFactor="0.98" vaporized="">
        <emissions CO_abs="0" CO2_abs="0" HC_abs="0" PMx_abs="0" NOx_abs="0" fuel_abs="0" electricity_abs="71.223796"/>
    </tripinfo>
    <tripinfo id="vehicle_106" depart="10.40" departLane="road2_0" departPos="4.10" departPosLat="0.00" departSpeed="1.52" departDelay="6.73" arrival="45.20" arrivalLane="-road0_0" arrivalPos="19.96" arrivalPosLat="0.00" arrivalSpeed="12.06" duration="34.80" routeLength="206.37" waitingTime="3.60" waitingCount="1" stopTime="0.00" timeLoss="18.50" rerouteNo="1" devices="tripinfo_vehicle_106 routing_vehicle_106 emissions_vehicle_106 battery_vehicle_106" vType="human" speedFactor="1.01" vaporized="">
        <emissions CO_abs="0" CO2_abs="0" HC_abs="0" PMx_abs="0" NOx_abs="0" fuel_abs="0" electricity_abs="75.614461"/>
    </tripinfo>
    <tripinfo id="vehicle_78" depart="11.20" departLane="road3_0" departPos="4.10" departPosLat="0.00" departSpeed="1.41" departDelay="5.86" arrival="46.80" arrivalLane="-road1_0" arrivalPos="19.96" arrivalPosLat="0.00" arrivalSpeed="12.01" duration="35.60" routeLength="206.37" waitingTime="6.80" waitingCount="2" stopTime="0.00" timeLoss="19.04" rerouteNo="1" devices="tripinfo_vehicle_78 routing_vehicle_78 emissions_vehicle_78 battery_vehicle_78" vType="human" speedFactor="1.01" vaporized="">
        <emissions CO_abs="0" CO2_abs="0" HC_abs="0" PMx_abs="0" NOx_abs="0" fuel_abs="0" electricity_abs="80.597215"/>
    </tripinfo>
    <tripinfo id="vehicle_0" depart="8.00" departLane="road2_0" departPos="4.10" departPosLat="0.00" departSpeed="2.89" departDelay="4.40" arrival="47.60" arrivalLane="-road3_0" arrivalPos="19.96" arrivalPosLat="0.00" arrivalSpeed="12.24" duration="39.60" routeLength="289.97" waitingTime="4.80" waitingCount="1" stopTime="0.00" timeLoss="17.27" rerouteNo="1" devices="tripinfo_vehicle_0 routing_vehicle_0 emissions_vehicle_0 battery_vehicle_0" vType="human" speedFactor="1.06" vaporized="">
        <emissions CO_abs="0" CO2_abs="0" HC_abs="0" PMx_abs="0" NOx_abs="0" fuel_abs="0" electricity_abs="99.885563"/>
    </tripinfo>
    <tripinfo id="vehicle_50" depart="8.80" departLane="road3_0" departPos="4.10" departPosLat="0.00" departSpeed="2.50" departDelay="3.67" arrival="48.80" arrivalLane="-road0_0" arrivalPos="19.96" arrivalPosLat="0.00" arrivalSpeed="11.32" duration="40.00" routeLength="289.97" waitingTime="2.00" waitingCount="1" stopTime="0.00" timeLoss="13.96" rerouteNo="1" devices="tripinfo_vehicle_50 routing_vehicle_50 emissions_vehicle_50 battery_vehicle_50" vType="human" speedFactor="0.85" vaporized="">
        <emissions CO_abs="0" CO2_abs="0" HC_abs="0" PMx_abs="0" NOx_abs="0" fuel_abs="0" electricity_abs="83.124282"/>
    </tripinfo>
    <tripinfo id="vehicle_102" depart="29.20" departLane="road3_0" departPos="4.10" departPosLat="0.00" departSpeed="1.25" departDelay="22.49" arrival="48.80" arrivalLane="-road2_0" arrivalPos="19.96" arrivalPosLat="0.00" arrivalSpeed="12.41" duration="19.60" routeLength="122.77" waitingTime="0.00" waitingCount="0" stopTime="0.00" timeLoss="8.93" rerouteNo="1" devices="tripinfo_vehicle_102 routing_vehicle_102 emissions_vehicle_102 battery_vehicle_102" vType="human" speedFactor="0.97" vaporized="">
        <emissions CO_abs="0" CO2_abs="0" HC_abs="0" PMx_abs="0" NOx_abs="0" fuel_abs="0" electricity_abs="58.746668"/>
    </tripinfo>
    <tripinfo id="vehicle_103" depart="30.00" departLane="road0_0" departPos="4.10" departPosLat="0.00" departSpeed="1.45" departDelay="19.21" arrival="51.20" arrivalLane="-road3_0" arrivalPos="19.96" arrivalPosLat="0.00" arrivalSpeed="11.43" duration="21.20" routeLength="122.77" waitingTime="2.00" waitingCount="1" stopTime="0.00" timeLoss="10.48" rerouteNo="0" devices="tripinfo_vehicle_103 emissions_vehicle_103 battery_vehicle_103" vType="human" speedFactor="0.95" vaporized="">
        <emissions CO_abs="0" CO2_abs="0" HC_abs="0" PMx_abs="0" NOx_abs="0" fuel_abs="0" electricity_abs="54.877578"/>
    </tripinfo>
    <tripinfo id="vehicle_53" depart="7.60" departLane="road1_0" departPos="4.10" departPosLat="0.00" departSpeed="3.13" departDelay="1.37" arrival="52.80" arrivalLane="-road0_0" arrivalPos="19.96" arrivalPosLat="0.00" arrivalSpeed="12.49" duration="45.20" routeLength="122.77" waitingTime="25.20" waitingCount="2" stopTime="0.00" timeLoss="35.01" rerouteNo="1" devices="tripinfo_vehicle_53 routing_vehicle_53 emissions_vehicle_53 battery_vehicle_53" vType="human" speedFactor="1.10" vaporized="">
        <emissions CO_abs="0" CO2_abs="0" HC_abs="0" PMx_abs="0" NOx_abs="0" fuel_abs="0" electricity_abs="61.741984"/>
    </tripinfo>
    <tripinfo id="vehicle_112" depart="19.60" departLane="road0_0" departPos="4.10" departPosLat="0.00" departSpeed="3.94" departDelay="13.31" arrival="52.80" arrivalLane="-road1_0" arrivalPos="19.96" arrivalPosLat="0.00" arrivalSpeed="12.40" duration="33.20" routeLength="289.97" waitingTime="0.00" waitingCount="0" stopTime="0.00" timeLoss="10.90" rerouteNo="0" devices="tripinfo_vehicle_112 emissions_vehicle_112 battery_vehicle_112" vType="human" speedFactor="1.10" vaporized="">
        <emissions CO_abs="0" CO2_abs="0" HC_abs="0" PMx_abs="0" NOx_abs="0" fuel_abs="0" electricity_abs="91.339223"/>
    </tripinfo>
    <tripinfo id="vehicle_56" depart="20.80" departLane="road3_0" departPos="4.10" departPosLat="0.00" departSpeed="1.81" departDelay="14.87" arrival="56.00" arrivalLane="-road1_0" arrivalPos="19.96" arrivalPosLat="0.00" arrivalSpeed="12.08" duration="35.20" routeLength="206.37" waitingTime="3.20" waitingCount="1" stopTime="0.00" timeLoss="17.05" rerouteNo="1" devices="tripinfo_vehicle_56 routing_vehicle_56 emissions_vehicle_56 battery_vehicle_56" vType="human" speedFactor="0.90" vaporized="">
        <emissions CO_abs="0" CO2_abs="0" HC_abs="0" PMx_abs="0" NOx_abs="0" fuel_abs="0" electricity_abs="71.058447"/>
    </tripinfo>
    <tripinfo id="vehicle_52" depart="18.00" departLane="road3_0" departPos="4.10" departPosLat="0.00" departSpeed="1.35" departDelay="12.40" arrival="56.80" arrivalLane="-road0_0" arrivalPos="19.96" arrivalPosLat="0.00" arrivalSpeed="12.14" duration="38.80" routeLength="289.97" waitingTime="4.00" waitingCount="1" stopTime="0.00" timeLoss="16.29" rerouteNo="1" devices="tripinfo_vehicle_52 routing_vehicle_52 emissions_vehicle_52 battery_vehicle_52" vType="human" speedFactor="1.02" vaporized="">
        <emissions CO_abs="0" CO2_abs="0" HC_abs="0" PMx_abs="0" NOx_abs="0" fuel_abs="0" electricity_abs="97.361669"/>
    </tripinfo>
    <tripinfo id="vehicle_41" depart="23.20" departLane="road0_0" departPos="4.10" departPosLat="0.00" departSpeed="2.26" departDelay="14.19" arrival="58.00" arrivalLane="-road1_0" arrivalPos="19.96" arrivalPosLat="0.00" arrivalSpeed="11.67" duration="34.80" routeLength="289.97" waitingTime="0.00" waitingCount="0" stopTime="0.00" timeLoss="11.43" rerouteNo="0" devices="tripinfo_vehicle_41 emissions_vehicle_41 battery_vehicle_41" vType="human" speedFactor="0.96" vaporized="">
        <emissions CO_abs="0" CO2_abs="0" HC_abs="0" PMx_abs="0" NOx_abs="0" fuel_abs="0" electricity_abs="88.785065"/>
    </tripinfo>
    <tripinfo id="vehicle_30" depart="6.00" departLane="road1_0" departPos="4.10" departPosLat="0.00" departSpeed="4.50" departDelay="0.24" arrival="58.40" arrivalLane="-road3_0" arrivalPos="19.96" arrivalPosLat="0.00" arrivalSpeed="12.11" duration="52.40" routeLength="206.37" waitingTime="26.40" waitingCount="1" stopTime="0.00" timeLoss="36.29" rerouteNo="1" devices="tripinfo_vehicle_30 routing_vehicle_30 emissions_vehicle_30 battery_vehicle_30" vType="human" speedFactor="1.18" vaporized="">
        <emissions CO_abs="0" CO2_abs="0" HC_abs="0" PMx_abs="0" NOx_abs="0" fuel_abs="0" electricity_abs="75.825024"/>
    </tripinfo>
    <tripinfo id="vehicle_86" depart="42.80" departLane="road1_0" departPos="4.10" departPosLat="0.00" departSpeed="1.59" departDelay="34.87" arrival="60.00" arrivalLane="-road0_0" arrivalPos="19.96" arrivalPosLat="0.00" arrivalSpeed="11.86" duration="17.20" routeLength="122.77" waitingTime="0.00" waitingCount="0" stopTime="0.00" timeLoss="6.70" rerouteNo="1" devices="tripinfo_vehicle_86 routing_vehicle_86 emissions_vehicle_86 battery_vehicle_86" vType="human" speedFactor="1.00" vaporized="">
        <emissions CO_abs="0" CO2_abs="0" HC_abs="0" PMx_abs="0" NOx_abs="0" fuel_abs="0" electricity_abs="56.627220"/>
    </tripinfo>
    <tripinfo id="vehicle_14" depart="21.20" departLane="road0_0" departPos="4.10" departPosLat="0.00" departSpeed="3.13" departDelay="13.80" arrival="60.40" arrivalLane="-road1_0" arrivalPos="19.96" arrivalPosLat="0.00" arrivalSpeed="12.59" duration="39.20" routeLength="289.97" waitingTime="0.00" waitingCount="0" stopTime="0.00" timeLoss="16.55" rerouteNo="0" devices="tripinfo_vehicle_14 emissions_vehicle_14 battery_vehicle_14" vType="human" speedFactor="0.99" vaporized="">
        <emissions CO_abs="0" CO2_abs="0" HC_abs="0" PMx_abs="0" NOx_abs="0" fuel_abs="0" electricity_abs="86.020427"/>
    </tripinfo>
    <tripinfo id="vehicle_62" depart="34.80" departLane="road0_0" departPos="4.10" departPosLat="0.00" departSpeed="1.97" departDelay="14.07" arrival="62.80" arrivalLane="-road2_0" arrivalPos="19.96" arrivalPosLat="0.00" arrivalSpeed="13.06" duration="28.00" routeLength="206.37" waitingTime="0.00" waitingCount="0" stopTime="0.00" timeLoss="11.42" rerouteNo="0" devices="tripinfo_vehicle_62 emissions_vehicle_62 battery_vehicle_62" vType="human" speedFactor="1.02" vaporized="">
        <emissions CO_abs="0" CO2_abs="0" HC_abs="0" PMx_abs="0" NOx_abs="0" fuel_abs="0" electricity_abs="85.636219"/>
    </tripinfo>
    <tripinfo id="vehicle_72" depart="27.60" departLane="road0_0" departPos="4.10" departPosLat="0.00" departSpeed="3.01" departDelay="16.81" arrival="63.20" arrivalLane="-road1_0" arrivalPos="19.96" arrivalPosLat="0.00" arrivalSpeed="11.21" duration="35.60" routeLength="289.97" waitingTime="0.00" waitingCount="0" stopTime="0.00" timeLoss="11.75" rerouteNo="0" devices="tripinfo_vehicle_72 emissions_vehicle_72 battery_vehicle_72" vType="human" speedFactor="0.94" vaporized="">
        <emissions CO_abs="0" CO2_abs="0" HC_abs="0" PMx_abs="0" NOx_abs="0" fuel_abs="0" electricity_abs="81.396708"/>
    </tripinfo>
    <tripinfo id="vehicle_118" depart="48.80" departLane="road1_0" departPos="4.10" departPosLat="0.00" departSpeed="3.27" departDelay="36.79" arrival="66.40" arrivalLane="-road0_0" arrivalPos="19.96" arrivalPosLat="0.00" arrivalSpeed="13.71" duration="17.60" routeLength="122.77" waitingTime="0.00" waitingCount="0" stopTime="0.00" timeLoss="6.95" rerouteNo="1" devices="tripinfo_vehicle_118 routing_vehicle_118 emissions_vehicle_118 battery_vehicle_118" vType="human" speedFactor="0.99" vaporized="">
        <emissions CO_abs="0" CO2_abs="0" HC_abs="0" PMx_abs="0" NOx_abs="0" fuel_abs="0" electricity_abs="68.045050"/>
    </tripinfo>
    <tripinfo id="vehicle_35" depart="9.60" departLane="road1_0" departPos="4.10" departPosLat="0.00" departSpeed="1.56" departDelay="2.62" arrival="68.40" arrivalLane="-road2_0" arrivalPos="19.96" arrivalPosLat="0.00" arrivalSpeed="12.14" duration="58.80" routeLength="289.97" waitingTime="23.60" waitingCount="1" stopTime="0.00" timeLoss="36.30" rerouteNo="1" devices="tripinfo_vehicle_35 routing_vehicle_35 emissions_vehicle_35 battery_vehicle_35" vType="human" speedFactor="1.02" vaporized="">
        <emissions CO_abs="0" CO2_abs="0" HC_abs="0" PMx_abs="0" NOx_abs="0" fuel_abs="0" electricity_abs="99.758266"/>
    </tripinfo>
    <tripinfo id="vehicle_47" depart="32.40" departLane="road0_0" departPos="4.10" departPosLat="0.00" departSpeed="2.95" departDelay="15.69" arrival="69.60" arrivalLane="-road1_0" arrivalPos="19.96" arrivalPosLat="0.00" arrivalSpeed="10.90" duration="37.20" routeLength="289.97" waitingTime="1.20" waitingCount="1" stopTime="0.00" timeLoss="12.61" rerouteNo="0" devices="tripinfo_vehicle_47 emissions_vehicle_47 battery_vehicle_47" vType="human" speedFactor="0.90" vaporized="">
        <emissions CO_abs="0" CO2_abs="0" HC_abs="0" PMx_abs="0" NOx_abs="0" fuel_abs="0" electricity_abs="83.205606"/>
    </tripinfo>
    <tripinfo id="vehicle_17" depart="44.80" departLane="road1_0" departPos="4.10" departPosLat="0.00" departSpeed="0.26" departDelay="34.72" arrival="70.40" arrivalLane="-road3_0" arrivalPos="19.96" arrivalPosLat="0.00" arrivalSpeed="11.84" duration="25.60" routeLength="206.37" waitingTime="0.00" waitingCount="0" stopTime="0.00" timeLoss="8.06" rerouteNo="1" devices="tripinfo_vehicle_17 routing_vehicle_17 emissions_vehicle_17 battery_vehicle_17" vType="human" speedFactor="0.94" vaporized="">
        <emissions CO_abs="0" CO2_abs="0" HC_abs="0" PMx_abs="0" NOx_abs="0" fuel_abs="0" electricity_abs="75.037216"/>
    </tripinfo>
    <tripinfo id="vehicle_7" depart="25.60" departLane="road2_0" departPos="4.10" departPosLat="0.00" departSpeed="0.38" departDelay="18.54" arrival="71.60" arrivalLane="-road1_0" arrivalPos="19.96" arrivalPosLat="0.00" arrivalSpeed="11.73" duration="46.00" routeLength="122.77" waitingTime="24.00" waitingCount="1" stopTime="0.00" timeLoss="34.46" rerouteNo="1" devices="tripinfo_vehicle_7 routing_vehicle_7 emissions_vehicle_7 battery_vehicle_7" vType="human" speedFactor="0.89" vaporized="">
        <emissions CO_abs="0" CO2_abs="0" HC_abs="0" PMx_abs="0" NOx_abs="0" fuel_abs="0" electricity_abs="55.618947"/>
    </tripinfo>
    <tripinfo id="vehicle_60" depart="40.00" departLane="road1_0" departPos="4.10" departPosLat="0.00" departSpeed="1.31" departDelay="32.48" arrival="72.00" arrivalLane="-road2_0" arrivalPos="19.96" arrivalPosLat="0.00" arrivalSpeed="12.52" duration="32.00" routeLength="289.97" waitingTime="0.00" waitingCount="0" stopTime="0.00" timeLoss="9.50" rerouteNo="1" devices="tripinfo_vehicle_60 routing_vehicle_60 emissions_vehicle_60 battery_vehicle_60" vType="human" speedFactor="1.08" vaporized="">
        <emissions CO_abs="0" CO2_abs="0" HC_abs="0" PMx_abs="0" NOx_abs="0" fuel_abs="0" electricity_abs="101.816514"/>
    </tripinfo>
    <tripinfo id="vehicle_65" depart="46.80" departLane="road1_0" departPos="4.10" departPosLat="0.00" departSpeed="2.90" departDelay="34.92" arrival="73.60" arrivalLane="-road3_0" arrivalPos="19.96" arrivalPosLat="0.00" arrivalSpeed="11.05" duration="26.80" routeLength="206.37" waitingTime="0.00" waitingCount="0" stopTime="0.00" timeLoss="8.33" rerouteNo="1" devices="tripinfo_vehicle_65 routing_vehicle_65 emissions_vehicle_65 battery_vehicle_65" vType="human" speedFactor="0.88" vaporized="">
        <emissions CO_abs="0" CO2_abs="0" HC_abs="0" PMx_abs="0" NOx_abs="0" fuel_abs="0" electricity_abs="65.800878"/>
    </tripinfo>
    <tripinfo id="vehicle_92" depart="20.80" departLane="road2_0" departPos="4.10" departPosLat="0.00" departSpeed="1.21" departDelay="15.72" arrival="75.20" arrivalLane="-road0_0" arrivalPos="19.96" arrivalPosLat="0.00" arrivalSpeed="10.88" duration="54.40" routeLength="206.37" waitingTime="26.00" waitingCount="1" stopTime="0.00" timeLoss="34.57" rerouteNo="1" devices="tripinfo_vehicle_92 routing_vehicle_92 emissions_vehicle_92 battery_vehicle_92" vType="human" speedFactor="0.83" vaporized="">
        <emissions CO_abs="0" CO2_abs="0" HC_abs="0" PMx_abs="0" NOx_abs="0" fuel_abs="0" electricity_abs="66.189282"/>
    </tripinfo>
    <tripinfo id="vehicle_104" depart="56.00" departLane="road3_0" departPos="4.10" departPosLat="0.00" departSpeed="1.37" departDelay="46.29" arrival="76.40" arrivalLane="-road2_0" arrivalPos="19.96" arrivalPosLat="0.00" arrivalSpeed="10.83" duration="20.40" routeLength="122.77" waitingTime="0.00" waitingCount="0" stopTime="0.00" timeLoss="8.83" rerouteNo="1" devices="tripinfo_vehicle_104 routing_vehicle_104 emissions_vehicle_104 battery_vehicle_104" vType="human" speedFactor="0.89" vaporized="">
        <emissions CO_abs="0" CO2_abs="0" HC_abs="0" PMx_abs="0" NOx_abs="0" fuel_abs="0" electricity_abs="47.472673"/>
    </tripinfo>