<?xml version="1.0" encoding="UTF-8"?>

<!-- generated on 2025-05-29 08:55:12 by Eclipse SUMO sumo Version v1_20_0+0085-e155ab8699b
<configuration xmlns:xsi="http://www.w3.org/2001/XMLSchema-instance" xsi:noNamespaceSchemaLocation="http://sumo.dlr.de/xsd/sumoConfiguration.xsd">

    <input>
        <net-file value="../networks/roundabout.net.xml"/>
        <route-files value="../networks/routes1.rou.xml"/>
    </input>

    <output>
        <output-prefix value="171-"/>
        <battery-output.precision value="4"/>
        <tripinfo-output value="../networks/output_data/output_kan/tripinfo/tripinfo-output.xml"/>
        <collision-output value="../networks/output_data/output_kan/collision/collision-output.xml"/>
    </output>

    <time>
        <begin value="0"/>
        <step-length value="0.4"/>
    </time>

    <processing>
        <step-method.ballistic value="true"/>
        <lateral-resolution value="3.2"/>
        <collision.action value="warn"/>
        <collision.mingap-factor value="0"/>
        <time-to-teleport value="-1"/>
        <random-depart-offset value="5"/>
    </processing>

    <report>
        <no-warnings value="True"/>
        <no-step-log value="True"/>
    </report>

    <emissions>
        <device.emissions.probability value="1"/>
    </emissions>

    <battery>
        <device.battery.probability value="1"/>
    </battery>

    <traci_server>
        <remote-port value="40285"/>
    </traci_server>

    <gui_only>
        <quit-on-end value="True"/>
        <start value="True"/>
    </gui_only>

</configuration>
-->

<tripinfos xmlns:xsi="http://www.w3.org/2001/XMLSchema-instance" xsi:noNamespaceSchemaLocation="http://sumo.dlr.de/xsd/tripinfo_file.xsd">
    <tripinfo id="vehicle_19" depart="0.40" departLane="road2_0" departPos="4.10" departPosLat="0.00" departSpeed="9.48" departDelay="0.01" arrival="14.00" arrivalLane="-road1_0" arrivalPos="19.96" arrivalPosLat="0.00" arrivalSpeed="12.66" duration="13.60" routeLength="122.77" waitingTime="0.00" waitingCount="0" stopTime="0.00" timeLoss="3.57" rerouteNo="1" devices="tripinfo_vehicle_19 routing_vehicle_19 emissions_vehicle_19 battery_vehicle_19" vType="human" speedFactor="1.16" vaporized="">
        <emissions CO_abs="0" CO2_abs="0" HC_abs="0" PMx_abs="0" NOx_abs="0" fuel_abs="0" electricity_abs="45.920402"/>
    </tripinfo>
    <tripinfo id="vehicle_13" depart="2.80" departLane="road0_0" departPos="4.10" departPosLat="0.00" departSpeed="9.43" departDelay="0.14" arrival="16.80" arrivalLane="-road3_0" arrivalPos="19.96" arrivalPosLat="0.00" arrivalSpeed="11.54" duration="14.00" routeLength="122.77" waitingTime="0.00" waitingCount="0" stopTime="0.00" timeLoss="3.84" rerouteNo="0" devices="tripinfo_vehicle_13 emissions_vehicle_13 battery_vehicle_13" vType="human" speedFactor="1.12" vaporized="">
        <emissions CO_abs="0" CO2_abs="0" HC_abs="0" PMx_abs="0" NOx_abs="0" fuel_abs="0" electricity_abs="38.695296"/>
    </tripinfo>
    <tripinfo id="vehicle_76" depart="1.20" departLane="road3_0" departPos="4.10" departPosLat="0.00" departSpeed="3.06" departDelay="0.56" arrival="16.80" arrivalLane="-road2_0" arrivalPos="19.96" arrivalPosLat="0.00" arrivalSpeed="12.75" duration="15.60" routeLength="122.77" waitingTime="0.00" waitingCount="0" stopTime="0.00" timeLoss="5.16" rerouteNo="1" devices="tripinfo_vehicle_76 routing_vehicle_76 emissions_vehicle_76 battery_vehicle_76" vType="human" speedFactor="1.03" vaporized="">
        <emissions CO_abs="0" CO2_abs="0" HC_abs="0" PMx_abs="0" NOx_abs="0" fuel_abs="0" electricity_abs="64.931106"/>
    </tripinfo>
    <tripinfo id="vehicle_99" depart="2.80" departLane="road3_0" departPos="4.10" departPosLat="0.00" departSpeed="1.44" departDelay="0.88" arrival="19.60" arrivalLane="-road2_0" arrivalPos="19.96" arrivalPosLat="0.00" arrivalSpeed="13.48" duration="16.80" routeLength="122.77" waitingTime="0.00" waitingCount="0" stopTime="0.00" timeLoss="6.42" rerouteNo="1" devices="tripinfo_vehicle_99 routing_vehicle_99 emissions_vehicle_99 battery_vehicle_99" vType="human" speedFactor="1.10" vaporized="">
        <emissions CO_abs="0" CO2_abs="0" HC_abs="0" PMx_abs="0" NOx_abs="0" fuel_abs="0" electricity_abs="71.524102"/>
    </tripinfo>
    <tripinfo id="vehicle_81" depart="5.20" departLane="road2_0" departPos="4.10" departPosLat="0.00" departSpeed="2.41" departDelay="1.92" arrival="21.60" arrivalLane="-road1_0" arrivalPos="19.96" arrivalPosLat="0.00" arrivalSpeed="12.12" duration="16.40" routeLength="122.77" waitingTime="0.00" waitingCount="0" stopTime="0.00" timeLoss="6.04" rerouteNo="1" devices="tripinfo_vehicle_81 routing_vehicle_81 emissions_vehicle_81 battery_vehicle_81" vType="human" speedFactor="1.00" vaporized="">
        <emissions CO_abs="0" CO2_abs="0" HC_abs="0" PMx_abs="0" NOx_abs="0" fuel_abs="0" electricity_abs="62.539830"/>
    </tripinfo>
    <tripinfo id="vehicle_45" depart="8.00" departLane="road2_0" departPos="4.10" departPosLat="0.00" departSpeed="4.51" departDelay="0.08" arrival="23.60" arrivalLane="-road1_0" arrivalPos="19.96" arrivalPosLat="0.00" arrivalSpeed="12.65" duration="15.60" routeLength="122.77" waitingTime="0.00" waitingCount="0" stopTime="0.00" timeLoss="5.43" rerouteNo="1" devices="tripinfo_vehicle_45 routing_vehicle_45 emissions_vehicle_45 battery_vehicle_45" vType="human" speedFactor="1.09" vaporized="">
        <emissions CO_abs="0" CO2_abs="0" HC_abs="0" PMx_abs="0" NOx_abs="0" fuel_abs="0" electricity_abs="63.538148"/>
    </tripinfo>
    <tripinfo id="vehicle_114" depart="4.80" departLane="road1_0" departPos="4.10" departPosLat="0.00" departSpeed="4.83" departDelay="1.31" arrival="25.60" arrivalLane="-road3_0" arrivalPos="19.96" arrivalPosLat="0.00" arrivalSpeed="13.66" duration="20.80" routeLength="206.37" waitingTime="0.00" waitingCount="0" stopTime="0.00" timeLoss="4.41" rerouteNo="1" devices="tripinfo_vehicle_114 routing_vehicle_114 emissions_vehicle_114 battery_vehicle_114" vType="human" speedFactor="1.10" vaporized="">
        <emissions CO_abs="0" CO2_abs="0" HC_abs="0" PMx_abs="0" NOx_abs="0" fuel_abs="0" electricity_abs="90.148751"/>
    </tripinfo>
    <tripinfo id="vehicle_44" depart="0.40" departLane="road3_0" departPos="4.10" departPosLat="0.00" departSpeed="9.75" departDelay="0.33" arrival="27.20" arrivalLane="-road0_0" arrivalPos="19.96" arrivalPosLat="0.00" arrivalSpeed="13.07" duration="26.80" routeLength="289.97" waitingTime="0.00" waitingCount="0" stopTime="0.00" timeLoss="4.55" rerouteNo="1" devices="tripinfo_vehicle_44 routing_vehicle_44 emissions_vehicle_44 battery_vehicle_44" vType="human" speedFactor="1.04" vaporized="">
        <emissions CO_abs="0" CO2_abs="0" HC_abs="0" PMx_abs="0" NOx_abs="0" fuel_abs="0" electricity_abs="88.749027"/>
    </tripinfo>
    <tripinfo id="vehicle_87" depart="4.40" departLane="road0_0" departPos="4.10" departPosLat="0.00" departSpeed="0.84" departDelay="0.25" arrival="27.20" arrivalLane="-road2_0" arrivalPos="19.96" arrivalPosLat="0.00" arrivalSpeed="12.00" duration="22.80" routeLength="206.37" waitingTime="0.00" waitingCount="0" stopTime="0.00" timeLoss="6.43" rerouteNo="0" devices="tripinfo_vehicle_87 emissions_vehicle_87 battery_vehicle_87" vType="human" speedFactor="1.04" vaporized="">
        <emissions CO_abs="0" CO2_abs="0" HC_abs="0" PMx_abs="0" NOx_abs="0" fuel_abs="0" electricity_abs="81.443931"/>
    </tripinfo>
    <tripinfo id="vehicle_108" depart="6.00" departLane="road0_0" departPos="4.10" departPosLat="0.00" departSpeed="4.85" departDelay="1.87" arrival="28.80" arrivalLane="-road2_0" arrivalPos="19.96" arrivalPosLat="0.00" arrivalSpeed="12.90" duration="22.80" routeLength="206.37" waitingTime="0.00" waitingCount="0" stopTime="0.00" timeLoss="6.60" rerouteNo="0" devices="tripinfo_vehicle_108 emissions_vehicle_108 battery_vehicle_108" vType="human" speedFactor="1.06" vaporized="">
        <emissions CO_abs="0" CO2_abs="0" HC_abs="0" PMx_abs="0" NOx_abs="0" fuel_abs="0" electricity_abs="80.224218"/>
    </tripinfo>
    <tripinfo id="vehicle_46" depart="2.40" departLane="road2_0" departPos="4.10" departPosLat="0.00" departSpeed="6.86" departDelay="0.06" arrival="30.00" arrivalLane="-road3_0" arrivalPos="19.96" arrivalPosLat="0.00" arrivalSpeed="12.66" duration="27.60" routeLength="289.97" waitingTime="0.00" waitingCount="0" stopTime="0.00" timeLoss="5.19" rerouteNo="1" devices="tripinfo_vehicle_46 routing_vehicle_46 emissions_vehicle_46 battery_vehicle_46" vType="human" speedFactor="1.00" vaporized="">
        <emissions CO_abs="0" CO2_abs="0" HC_abs="0" PMx_abs="0" NOx_abs="0" fuel_abs="0" electricity_abs="95.746700"/>
    </tripinfo>
    <tripinfo id="vehicle_116" depart="3.20" departLane="road1_0" departPos="4.10" departPosLat="0.00" departSpeed="2.08" departDelay="0.39" arrival="31.20" arrivalLane="-road2_0" arrivalPos="19.96" arrivalPosLat="0.00" arrivalSpeed="11.57" duration="28.00" routeLength="289.97" waitingTime="0.00" waitingCount="0" stopTime="0.00" timeLoss="6.06" rerouteNo="1" devices="tripinfo_vehicle_116 routing_vehicle_116 emissions_vehicle_116 battery_vehicle_116" vType="human" speedFactor="1.18" vaporized="">
        <emissions CO_abs="0" CO2_abs="0" HC_abs="0" PMx_abs="0" NOx_abs="0" fuel_abs="0" electricity_abs="98.744618"/>
    </tripinfo>
    <tripinfo id="vehicle_40" depart="3.60" departLane="road2_0" departPos="4.10" departPosLat="0.00" departSpeed="4.25" departDelay="0.37" arrival="32.00" arrivalLane="-road3_0" arrivalPos="19.96" arrivalPosLat="0.00" arrivalSpeed="12.97" duration="28.40" routeLength="289.97" waitingTime="0.00" waitingCount="0" stopTime="0.00" timeLoss="6.21" rerouteNo="1" devices="tripinfo_vehicle_40 routing_vehicle_40 emissions_vehicle_40 battery_vehicle_40" vType="human" speedFactor="1.03" vaporized="">
        <emissions CO_abs="0" CO2_abs="0" HC_abs="0" PMx_abs="0" NOx_abs="0" fuel_abs="0" electricity_abs="104.945825"/>
    </tripinfo>
    <tripinfo id="vehicle_8" depart="9.60" departLane="road2_0" departPos="4.10" departPosLat="0.00" departSpeed="1.42" departDelay="1.06" arrival="34.40" arrivalLane="-road0_0" arrivalPos="19.96" arrivalPosLat="0.00" arrivalSpeed="12.76" duration="24.80" routeLength="206.37" waitingTime="0.00" waitingCount="0" stopTime="0.00" timeLoss="7.29" rerouteNo="1" devices="tripinfo_vehicle_8 routing_vehicle_8 emissions_vehicle_8 battery_vehicle_8" vType="human" speedFactor="0.94" vaporized="">
        <emissions CO_abs="0" CO2_abs="0" HC_abs="0" PMx_abs="0" NOx_abs="0" fuel_abs="0" electricity_abs="83.205380"/>
    </tripinfo>
    <tripinfo id="vehicle_57" depart="5.20" departLane="road3_0" departPos="4.10" departPosLat="0.00" departSpeed="3.49" departDelay="2.59" arrival="36.80" arrivalLane="-road0_0" arrivalPos="19.96" arrivalPosLat="0.00" arrivalSpeed="11.99" duration="31.60" routeLength="289.97" waitingTime="0.00" waitingCount="0" stopTime="0.00" timeLoss="9.28" rerouteNo="1" devices="tripinfo_vehicle_57 routing_vehicle_57 emissions_vehicle_57 battery_vehicle_57" vType="human" speedFactor="1.14" vaporized="">
        <emissions CO_abs="0" CO2_abs="0" HC_abs="0" PMx_abs="0" NOx_abs="0" fuel_abs="0" electricity_abs="96.351476"/>
    </tripinfo>
    <tripinfo id="vehicle_27" depart="13.60" departLane="road3_0" departPos="4.10" departPosLat="0.00" departSpeed="1.45" departDelay="9.54" arrival="38.80" arrivalLane="-road2_0" arrivalPos="19.96" arrivalPosLat="0.00" arrivalSpeed="12.36" duration="25.20" routeLength="122.77" waitingTime="4.00" waitingCount="1" stopTime="0.00" timeLoss="14.10" rerouteNo="1" devices="tripinfo_vehicle_27 routing_vehicle_27 emissions_vehicle_27 battery_vehicle_27" vType="human" speedFactor="0.95" vaporized="">
        <emissions CO_abs="0" CO2_abs="0" HC_abs="0" PMx_abs="0" NOx_abs="0" fuel_abs="0" electricity_abs="61.482683"/>
    </tripinfo>
    <tripinfo id="vehicle_89" depart="7.20" departLane="road3_0" departPos="4.10" departPosLat="0.00" departSpeed="2.00" departDelay="4.71" arrival="38.80" arrivalLane="-road0_0" arrivalPos="19.96" arrivalPosLat="0.00" arrivalSpeed="12.06" duration="31.60" routeLength="289.97" waitingTime="0.00" waitingCount="0" stopTime="0.00" timeLoss="9.23" rerouteNo="1" devices="tripinfo_vehicle_89 routing_vehicle_89 emissions_vehicle_89 battery_vehicle_89" vType="human" speedFactor="1.02" vaporized="">
        <emissions CO_abs="0" CO2_abs="0" HC_abs="0" PMx_abs="0" NOx_abs="0" fuel_abs="0" electricity_abs="97.039708"/>
    </tripinfo>
    <tripinfo id="vehicle_30" depart="9.60" departLane="road3_0" departPos="4.10" departPosLat="0.00" departSpeed="2.86" departDelay="6.29" arrival="40.40" arrivalLane="-road1_0" arrivalPos="19.96" arrivalPosLat="0.00" arrivalSpeed="13.00" duration="30.80" routeLength="206.37" waitingTime="5.60" waitingCount="1" stopTime="0.00" timeLoss="14.97" rerouteNo="1" devices="tripinfo_vehicle_30 routing_vehicle_30 emissions_vehicle_30 battery_vehicle_30" vType="human" speedFactor="1.18" vaporized="">
        <emissions CO_abs="0" CO2_abs="0" HC_abs="0" PMx_abs="0" NOx_abs="0" fuel_abs="0" electricity_abs="87.357074"/>
    </tripinfo>
    <tripinfo id="vehicle_66" depart="23.60" departLane="road3_0" departPos="4.10" departPosLat="0.00" departSpeed="1.21" departDelay="19.11" arrival="42.00" arrivalLane="-road2_0" arrivalPos="19.96" arrivalPosLat="0.00" arrivalSpeed="10.13" duration="18.40" routeLength="122.77" waitingTime="0.00" waitingCount="0" stopTime="0.00" timeLoss="7.05" rerouteNo="1" devices="tripinfo_vehicle_66 routing_vehicle_66 emissions_vehicle_66 battery_vehicle_66" vType="human" speedFactor="0.91" vaporized="">
        <emissions CO_abs="0" CO2_abs="0" HC_abs="0" PMx_abs="0" NOx_abs="0" fuel_abs="0" electricity_abs="47.004027"/>
    </tripinfo>
    <tripinfo id="vehicle_49" depart="12.40" departLane="road2_0" departPos="4.10" departPosLat="0.00" departSpeed="0.98" departDelay="2.86" arrival="43.60" arrivalLane="-road0_0" arrivalPos="19.96" arrivalPosLat="0.00" arrivalSpeed="11.05" duration="31.20" routeLength="206.37" waitingTime="3.20" waitingCount="1" stopTime="0.00" timeLoss="11.81" rerouteNo="1" devices="tripinfo_vehicle_49 routing_vehicle_49 emissions_vehicle_49 battery_vehicle_49" vType="human" speedFactor="0.85" vaporized="">
        <emissions CO_abs="0" CO2_abs="0" HC_abs="0" PMx_abs="0" NOx_abs="0" fuel_abs="0" electricity_abs="68.129404"/>
    </tripinfo>
    <tripinfo id="vehicle_14" depart="14.80" departLane="road2_0" departPos="4.10" departPosLat="0.00" departSpeed="3.55" departDelay="3.74" arrival="45.60" arrivalLane="-road0_0" arrivalPos="19.96" arrivalPosLat="0.00" arrivalSpeed="12.24" duration="30.80" routeLength="206.37" waitingTime="2.80" waitingCount="1" stopTime="0.00" timeLoss="14.56" rerouteNo="1" devices="tripinfo_vehicle_14 routing_vehicle_14 emissions_vehicle_14 battery_vehicle_14" vType="human" speedFactor="0.99" vaporized="">
        <emissions CO_abs="0" CO2_abs="0" HC_abs="0" PMx_abs="0" NOx_abs="0" fuel_abs="0" electricity_abs="75.816637"/>
    </tripinfo>
    <tripinfo id="vehicle_5" depart="12.00" departLane="road0_0" departPos="4.10" departPosLat="0.00" departSpeed="1.72" departDelay="3.21" arrival="48.00" arrivalLane="-road2_0" arrivalPos="19.96" arrivalPosLat="0.00" arrivalSpeed="10.64" duration="36.00" routeLength="206.37" waitingTime="6.40" waitingCount="1" stopTime="0.00" timeLoss="16.32" rerouteNo="0" devices="tripinfo_vehicle_5 emissions_vehicle_5 battery_vehicle_5" vType="human" speedFactor="0.83" vaporized="">
        <emissions CO_abs="0" CO2_abs="0" HC_abs="0" PMx_abs="0" NOx_abs="0" fuel_abs="0" electricity_abs="67.135253"/>
    </tripinfo>
    <tripinfo id="vehicle_117" depart="6.40" departLane="road1_0" departPos="4.10" departPosLat="0.00" departSpeed="4.66" departDelay="2.35" arrival="48.40" arrivalLane="-road0_0" arrivalPos="19.96" arrivalPosLat="0.00" arrivalSpeed="11.90" duration="42.00" routeLength="122.77" waitingTime="21.60" waitingCount="1" stopTime="0.00" timeLoss="31.58" rerouteNo="1" devices="tripinfo_vehicle_117 routing_vehicle_117 emissions_vehicle_117 battery_vehicle_117" vType="human" speedFactor="1.00" vaporized="">
        <emissions CO_abs="0" CO2_abs="0" HC_abs="0" PMx_abs="0" NOx_abs="0" fuel_abs="0" electricity_abs="52.660951"/>
    </tripinfo>
    <tripinfo id="vehicle_34" depart="24.80" departLane="road0_0" departPos="4.10" departPosLat="0.00" departSpeed="1.32" departDelay="15.66" arrival="50.40" arrivalLane="-road2_0" arrivalPos="19.96" arrivalPosLat="0.00" arrivalSpeed="11.93" duration="25.60" routeLength="206.37" waitingTime="0.00" waitingCount="0" stopTime="0.00" timeLoss="9.03" rerouteNo="0" devices="tripinfo_vehicle_34 emissions_vehicle_34 battery_vehicle_34" vType="human" speedFactor="0.99" vaporized="">
        <emissions CO_abs="0" CO2_abs="0" HC_abs="0" PMx_abs="0" NOx_abs="0" fuel_abs="0" electricity_abs="75.766624"/>
    </tripinfo>
    <tripinfo id="vehicle_111" depart="7.60" departLane="road0_0" departPos="4.10" departPosLat="0.00" departSpeed="0.48" departDelay="2.41" arrival="51.60" arrivalLane="-road1_0" arrivalPos="19.96" arrivalPosLat="0.00" arrivalSpeed="11.81" duration="44.00" routeLength="289.97" waitingTime="9.20" waitingCount="1" stopTime="0.00" timeLoss="18.21" rerouteNo="0" devices="tripinfo_vehicle_111 emissions_vehicle_111 battery_vehicle_111" vType="human" speedFactor="0.87" vaporized="">
        <emissions CO_abs="0" CO2_abs="0" HC_abs="0" PMx_abs="0" NOx_abs="0" fuel_abs="0" electricity_abs="90.804057"/>
    </tripinfo>
    <tripinfo id="vehicle_85" depart="36.00" departLane="road0_0" departPos="4.10" departPosLat="0.00" departSpeed="2.47" departDelay="23.52" arrival="52.40" arrivalLane="-road3_0" arrivalPos="19.96" arrivalPosLat="0.00" arrivalSpeed="11.72" duration="16.40" routeLength="122.77" waitingTime="0.00" waitingCount="0" stopTime="0.00" timeLoss="6.03" rerouteNo="0" devices="tripinfo_vehicle_85 emissions_vehicle_85 battery_vehicle_85" vType="human" speedFactor="0.98" vaporized="">
        <emissions CO_abs="0" CO2_abs="0" HC_abs="0" PMx_abs="0" NOx_abs="0" fuel_abs="0" electricity_abs="57.811504"/>
    </tripinfo>
    <tripinfo id="vehicle_64" depart="11.60" departLane="road3_0" departPos="4.10" departPosLat="0.00" departSpeed="2.98" departDelay="7.69" arrival="52.80" arrivalLane="-road0_0" arrivalPos="19.96" arrivalPosLat="0.00" arrivalSpeed="11.42" duration="41.20" routeLength="289.97" waitingTime="4.40" waitingCount="1" stopTime="0.00" timeLoss="17.47" rerouteNo="1" devices="tripinfo_vehicle_64 routing_vehicle_64 emissions_vehicle_64 battery_vehicle_64" vType="human" speedFactor="0.94" vaporized="">
        <emissions CO_abs="0" CO2_abs="0" HC_abs="0" PMx_abs="0" NOx_abs="0" fuel_abs="0" electricity_abs="86.740654"/>
    </tripinfo>
    <tripinfo id="vehicle_80" depart="10.00" departLane="road0_0" departPos="4.10" departPosLat="0.00" departSpeed="4.36" departDelay="3.52" arrival="53.60" arrivalLane="-road1_0" arrivalPos="19.96" arrivalPosLat="0.00" arrivalSpeed="12.72" duration="43.60" routeLength="289.97" waitingTime="8.00" waitingCount="1" stopTime="0.00" timeLoss="21.25" rerouteNo="0" devices="tripinfo_vehicle_80 emissions_vehicle_80 battery_vehicle_80" vType="human" speedFactor="1.03" vaporized="">
        <emissions CO_abs="0" CO2_abs="0" HC_abs="0" PMx_abs="0" NOx_abs="0" fuel_abs="0" electricity_abs="95.606516"/>
    </tripinfo>
    <tripinfo id="vehicle_25" depart="29.60" departLane="road0_0" departPos="4.10" departPosLat="0.00" departSpeed="2.04" departDelay="19.25" arrival="55.20" arrivalLane="-road2_0" arrivalPos="19.96" arrivalPosLat="0.00" arrivalSpeed="10.86" duration="25.60" routeLength="206.37" waitingTime="0.00" waitingCount="0" stopTime="0.00" timeLoss="6.88" rerouteNo="0" devices="tripinfo_vehicle_25 emissions_vehicle_25 battery_vehicle_25" vType="human" speedFactor="0.87" vaporized="">
        <emissions CO_abs="0" CO2_abs="0" HC_abs="0" PMx_abs="0" NOx_abs="0" fuel_abs="0" electricity_abs="67.501649"/>
    </tripinfo>
    <tripinfo id="vehicle_115" depart="8.00" departLane="road1_0" departPos="4.10" departPosLat="0.00" departSpeed="3.25" departDelay="2.28" arrival="58.40" arrivalLane="-road3_0" arrivalPos="19.96" arrivalPosLat="0.00" arrivalSpeed="12.48" duration="50.40" routeLength="206.37" waitingTime="21.20" waitingCount="1" stopTime="0.00" timeLoss="32.92" rerouteNo="1" devices="tripinfo_vehicle_115 routing_vehicle_115 emissions_vehicle_115 battery_vehicle_115" vType="human" speedFactor="0.92" vaporized="">
        <emissions CO_abs="0" CO2_abs="0" HC_abs="0" PMx_abs="0" NOx_abs="0" fuel_abs="0" electricity_abs="76.710062"/>
    </tripinfo>
    <tripinfo id="vehicle_18" depart="41.60" departLane="road1_0" departPos="4.10" departPosLat="0.00" departSpeed="3.52" departDelay="32.70" arrival="59.60" arrivalLane="-road0_0" arrivalPos="19.96" arrivalPosLat="0.00" arrivalSpeed="11.57" duration="18.00" routeLength="122.77" waitingTime="0.00" waitingCount="0" stopTime="0.00" timeLoss="6.95" rerouteNo="1" devices="tripinfo_vehicle_18 routing_vehicle_18 emissions_vehicle_18 battery_vehicle_18" vType="human" speedFactor="0.94" vaporized="">
        <emissions CO_abs="0" CO2_abs="0" HC_abs="0" PMx_abs="0" NOx_abs="0" fuel_abs="0" electricity_abs="50.616366"/>
    </tripinfo>
    <tripinfo id="vehicle_22" depart="27.60" departLane="road0_0" departPos="4.10" departPosLat="0.00" departSpeed="2.97" departDelay="17.45" arrival="60.80" arrivalLane="-road1_0" arrivalPos="19.96" arrivalPosLat="0.00" arrivalSpeed="11.68" duration="33.20" routeLength="289.97" waitingTime="0.00" waitingCount="0" stopTime="0.00" timeLoss="10.17" rerouteNo="0" devices="tripinfo_vehicle_22 emissions_vehicle_22 battery_vehicle_22" vType="human" speedFactor="0.97" vaporized="">
        <emissions CO_abs="0" CO2_abs="0" HC_abs="0" PMx_abs="0" NOx_abs="0" fuel_abs="0" electricity_abs="89.072483"/>
    </tripinfo>
    <tripinfo id="vehicle_48" depart="43.60" departLane="road1_0" departPos="4.10" departPosLat="0.00" departSpeed="0.31" departDelay="32.92" arrival="62.80" arrivalLane="-road0_0" arrivalPos="19.96" arrivalPosLat="0.00" arrivalSpeed="10.79" duration="19.20" routeLength="122.77" waitingTime="0.00" waitingCount="0" stopTime="0.00" timeLoss="7.44" rerouteNo="1" devices="tripinfo_vehicle_48 routing_vehicle_48 emissions_vehicle_48 battery_vehicle_48" vType="human" speedFactor="0.88" vaporized="">
        <emissions CO_abs="0" CO2_abs="0" HC_abs="0" PMx_abs="0" NOx_abs="0" fuel_abs="0" electricity_abs="49.063283"/>
    </tripinfo>
    <tripinfo id="vehicle_71" depart="10.40" departLane="road1_0" departPos="4.10" departPosLat="0.00" departSpeed="1.59" departDelay="4.06" arrival="63.20" arrivalLane="-road3_0" arrivalPos="19.96" arrivalPosLat="0.00" arrivalSpeed="11.24" duration="52.80" routeLength="206.37" waitingTime="20.40" waitingCount="1" stopTime="0.00" timeLoss="35.99" rerouteNo="1" devices="tripinfo_vehicle_71 routing_vehicle_71 emissions_vehicle_71 battery_vehicle_71" vType="human" speedFactor="0.97" vaporized="">
        <emissions CO_abs="0" CO2_abs="0" HC_abs="0" PMx_abs="0" NOx_abs="0" fuel_abs="0" electricity_abs="69.134984"/>
    </tripinfo>
    <tripinfo id="vehicle_97" depart="32.00" departLane="road0_0" departPos="4.10" departPosLat="0.00" departSpeed="3.05" departDelay="21.56" arrival="63.60" arrivalLane="-road1_0" arrivalPos="19.96" arrivalPosLat="0.00" arrivalSpeed="10.62" duration="31.60" routeLength="289.97" waitingTime="0.00" waitingCount="0" stopTime="0.00" timeLoss="7.09" rerouteNo="0" devices="tripinfo_vehicle_97 emissions_vehicle_97 battery_vehicle_97" vType="human" speedFactor="0.91" vaporized="">
        <emissions CO_abs="0" CO2_abs="0" HC_abs="0" PMx_abs="0" NOx_abs="0" fuel_abs="0" electricity_abs="83.030740"/>
    </tripinfo>
    <tripinfo id="vehicle_16" depart="38.40" departLane="road0_0" departPos="4.10" departPosLat="0.00" departSpeed="2.72" departDelay="25.31" arrival="64.00" arrivalLane="-road2_0" arrivalPos="19.96" arrivalPosLat="0.00" arrivalSpeed="10.72" duration="25.60" routeLength="206.37" waitingTime="0.00" waitingCount="0" stopTime="0.00" timeLoss="7.00" rerouteNo="0" devices="tripinfo_vehicle_16 emissions_vehicle_16 battery_vehicle_16" vType="human" speedFactor="0.88" vaporized="">
        <emissions CO_abs="0" CO2_abs="0" HC_abs="0" PMx_abs="0" NOx_abs="0" fuel_abs="0" electricity_abs="65.067421"/>
    </tripinfo>
    <tripinfo id="vehicle_95" depart="36.40" departLane="road1_0" departPos="4.10" departPosLat="0.00" departSpeed="1.05" departDelay="29.29" arrival="65.20" arrivalLane="-road3_0" arrivalPos="19.96" arrivalPosLat="0.00" arrivalSpeed="13.63" duration="28.80" routeLength="206.37" waitingTime="0.00" waitingCount="0" stopTime="0.00" timeLoss="12.53" rerouteNo="1" devices="tripinfo_vehicle_95 routing_vehicle_95 emissions_vehicle_95 battery_vehicle_95" vType="human" speedFactor="1.06" vaporized="">
        <emissions CO_abs="0" CO2_abs="0" HC_abs="0" PMx_abs="0" NOx_abs="0" fuel_abs="0" electricity_abs="84.831261"/>
    </tripinfo>
    <tripinfo id="vehicle_53" depart="34.00" departLane="road0_0" departPos="4.10" departPosLat="0.00" departSpeed="1.99" departDelay="22.30" arrival="66.00" arrivalLane="-road1_0" arrivalPos="19.96" arrivalPosLat="0.00" arrivalSpeed="12.67" duration="32.00" routeLength="289.97" waitingTime="0.00" waitingCount="0" stopTime="0.00" timeLoss="9.60" rerouteNo="0" devices="tripinfo_vehicle_53 emissions_vehicle_53 battery_vehicle_53" vType="human" speedFactor="1.10" vaporized="">
        <emissions CO_abs="0" CO2_abs="0" HC_abs="0" PMx_abs="0" NOx_abs="0" fuel_abs="0" electricity_abs="100.548243"/>
    </tripinfo>
    <tripinfo id="vehicle_75" depart="26.00" departLane="road3_0" departPos="4.10" departPosLat="0.00" departSpeed="0.25" departDelay="21.30" arrival="66.40" arrivalLane="-road2_0" arrivalPos="19.96" arrivalPosLat="0.00" arrivalSpeed="12.45" duration="40.40" routeLength="122.77" waitingTime="20.40" waitingCount="1" stopTime="0.00" timeLoss="29.81" rerouteNo="1" devices="tripinfo_vehicle_75 routing_vehicle_75 emissions_vehicle_75 battery_vehicle_75" vType="human" speedFactor="0.98" vaporized="">
        <emissions CO_abs="0" CO2_abs="0" HC_abs="0" PMx_abs="0" NOx_abs="0" fuel_abs="0" electricity_abs="63.245181"/>
    </tripinfo>
    <tripinfo id="vehicle_91" depart="48.00" departLane="road1_0" departPos="4.10" departPosLat="0.00" departSpeed="1.80" departDelay="34.34" arrival="67.20" arrivalLane="-road0_0" arrivalPos="19.96" arrivalPosLat="0.00" arrivalSpeed="12.32" duration="19.20" routeLength="122.77" waitingTime="0.00" waitingCount="0" stopTime="0.00" timeLoss="7.41" rerouteNo="1" devices="tripinfo_vehicle_91 routing_vehicle_91 emissions_vehicle_91 battery_vehicle_91" vType="human" speedFactor="0.89" vaporized="">
        <emissions CO_abs="0" CO2_abs="0" HC_abs="0" PMx_abs="0" NOx_abs="0" fuel_abs="0" electricity_abs="58.154642"/>
    </tripinfo>
    <tripinfo id="vehicle_28" depart="46.00" departLane="road1_0" departPos="4.10" departPosLat="0.00" departSpeed="2.97" departDelay="32.52" arrival="71.60" arrivalLane="-road3_0" arrivalPos="19.96" arrivalPosLat="0.00" arrivalSpeed="11.37" duration="25.60" routeLength="206.37" waitingTime="0.00" waitingCount="0" stopTime="0.00" timeLoss="9.56" rerouteNo="1" devices="tripinfo_vehicle_28 routing_vehicle_28 emissions_vehicle_28 battery_vehicle_28" vType="human" speedFactor="1.13" vaporized="">
        <emissions CO_abs="0" CO2_abs="0" HC_abs="0" PMx_abs="0" NOx_abs="0" fuel_abs="0" electricity_abs="71.226173"/>
    </tripinfo>
    <tripinfo id="vehicle_69" depart="54.40" departLane="road1_0" departPos="4.10" departPosLat="0.00" departSpeed="3.05" departDelay="37.43" arrival="72.00" arrivalLane="-road0_0" arrivalPos="19.96" arrivalPosLat="0.00" arrivalSpeed="12.47" duration="17.60" routeLength="122.77" waitingTime="0.00" waitingCount="0" stopTime="0.00" timeLoss="7.22" rerouteNo="1" devices="tripinfo_vehicle_69 routing_vehicle_69 emissions_vehicle_69 battery_vehicle_69" vType="human" speedFactor="1.02" vaporized="">
        <emissions CO_abs="0" CO2_abs="0" HC_abs="0" PMx_abs="0" NOx_abs="0" fuel_abs="0" electricity_abs="58.598432"/>
    </tripinfo>
    <tripinfo id="vehicle_74" depart="39.20" departLane="road1_0" departPos="4.10" departPosLat="0.00" departSpeed="2.28" departDelay="30.94" arrival="72.80" arrivalLane="-road2_0" arrivalPos="19.96" arrivalPosLat="0.00" arrivalSpeed="11.98" duration="33.60" routeLength="289.97" waitingTime="0.00" waitingCount="0" stopTime="0.00" timeLoss="10.13" rerouteNo="1" devices="tripinfo_vehicle_74 routing_vehicle_74 emissions_vehicle_74 battery_vehicle_74" vType="human" speedFactor="0.96" vaporized="">
        <emissions CO_abs="0" CO2_abs="0" HC_abs="0" PMx_abs="0" NOx_abs="0" fuel_abs="0" electricity_abs="92.442985"/>
    </tripinfo>
    <tripinfo id="vehicle_77" depart="56.40" departLane="road1_0" departPos="4.10" departPosLat="0.00" departSpeed="2.27" departDelay="39.59" arrival="74.40" arrivalLane="-road0_0" arrivalPos="19.96" arrivalPosLat="0.00" arrivalSpeed="11.82" duration="18.00" routeLength="122.77" waitingTime="0.00" waitingCount="0" stopTime="0.00" timeLoss="7.61" rerouteNo="1" devices="tripinfo_vehicle_77 routing_vehicle_77 emissions_vehicle_77 battery_vehicle_77" vType="human" speedFactor="0.98" vaporized="">
        <emissions CO_abs="0" CO2_abs="0" HC_abs="0" PMx_abs="0" NOx_abs="0" fuel_abs="0" electricity_abs="54.184715"/>
    </tripinfo>
</tripinfos>
