<?xml version="1.0" encoding="UTF-8"?>

<!-- generated on 2025-05-29 08:55:41 by Eclipse SUMO sumo Version v1_20_0+0085-e155ab8699b
<configuration xmlns:xsi="http://www.w3.org/2001/XMLSchema-instance" xsi:noNamespaceSchemaLocation="http://sumo.dlr.de/xsd/sumoConfiguration.xsd">

    <input>
        <net-file value="../networks/roundabout.net.xml"/>
        <route-files value="../networks/routes1.rou.xml"/>
    </input>

    <output>
        <output-prefix value="186-"/>
        <battery-output.precision value="4"/>
        <tripinfo-output value="../networks/output_data/output_kan/tripinfo/tripinfo-output.xml"/>
        <collision-output value="../networks/output_data/output_kan/collision/collision-output.xml"/>
    </output>

    <time>
        <begin value="0"/>
        <step-length value="0.4"/>
    </time>

    <processing>
        <step-method.ballistic value="true"/>
        <lateral-resolution value="3.2"/>
        <collision.action value="warn"/>
        <collision.mingap-factor value="0"/>
        <time-to-teleport value="-1"/>
        <random-depart-offset value="5"/>
    </processing>

    <report>
        <no-warnings value="True"/>
        <no-step-log value="True"/>
    </report>

    <emissions>
        <device.emissions.probability value="1"/>
    </emissions>

    <battery>
        <device.battery.probability value="1"/>
    </battery>

    <traci_server>
        <remote-port value="58265"/>
    </traci_server>

    <gui_only>
        <quit-on-end value="True"/>
        <start value="True"/>
    </gui_only>

</configuration>
-->

<tripinfos xmlns:xsi="http://www.w3.org/2001/XMLSchema-instance" xsi:noNamespaceSchemaLocation="http://sumo.dlr.de/xsd/tripinfo_file.xsd">
    <tripinfo id="vehicle_22" depart="0.40" departLane="road2_0" departPos="4.10" departPosLat="0.00" departSpeed="9.62" departDelay="0.28" arrival="15.20" arrivalLane="-road1_0" arrivalPos="19.96" arrivalPosLat="0.00" arrivalSpeed="12.38" duration="14.80" routeLength="122.77" waitingTime="0.00" waitingCount="0" stopTime="0.00" timeLoss="4.22" rerouteNo="1" devices="tripinfo_vehicle_22 routing_vehicle_22 emissions_vehicle_22 battery_vehicle_22" vType="human" speedFactor="0.97" vaporized="">
        <emissions CO_abs="0" CO2_abs="0" HC_abs="0" PMx_abs="0" NOx_abs="0" fuel_abs="0" electricity_abs="40.702308"/>
    </tripinfo>
    <tripinfo id="vehicle_58" depart="1.20" departLane="road3_0" departPos="4.10" departPosLat="0.00" departSpeed="3.06" departDelay="0.75" arrival="17.60" arrivalLane="-road2_0" arrivalPos="19.96" arrivalPosLat="0.00" arrivalSpeed="12.72" duration="16.40" routeLength="122.77" waitingTime="0.00" waitingCount="0" stopTime="0.00" timeLoss="5.89" rerouteNo="1" devices="tripinfo_vehicle_58 routing_vehicle_58 emissions_vehicle_58 battery_vehicle_58" vType="human" speedFactor="1.02" vaporized="">
        <emissions CO_abs="0" CO2_abs="0" HC_abs="0" PMx_abs="0" NOx_abs="0" fuel_abs="0" electricity_abs="63.958847"/>
    </tripinfo>
    <tripinfo id="vehicle_79" depart="3.20" departLane="road0_0" departPos="4.10" departPosLat="0.00" departSpeed="0.84" departDelay="0.25" arrival="24.80" arrivalLane="-road2_0" arrivalPos="19.96" arrivalPosLat="0.00" arrivalSpeed="13.48" duration="21.60" routeLength="206.37" waitingTime="0.00" waitingCount="0" stopTime="0.00" timeLoss="5.20" rerouteNo="0" devices="tripinfo_vehicle_79 emissions_vehicle_79 battery_vehicle_79" vType="human" speedFactor="1.09" vaporized="">
        <emissions CO_abs="0" CO2_abs="0" HC_abs="0" PMx_abs="0" NOx_abs="0" fuel_abs="0" electricity_abs="93.323921"/>
    </tripinfo>
    <tripinfo id="vehicle_106" depart="2.80" departLane="road3_0" departPos="4.10" departPosLat="0.00" departSpeed="1.16" departDelay="2.17" arrival="27.20" arrivalLane="-road1_0" arrivalPos="19.96" arrivalPosLat="0.00" arrivalSpeed="12.32" duration="24.40" routeLength="206.37" waitingTime="0.00" waitingCount="0" stopTime="0.00" timeLoss="7.93" rerouteNo="1" devices="tripinfo_vehicle_106 routing_vehicle_106 emissions_vehicle_106 battery_vehicle_106" vType="human" speedFactor="1.01" vaporized="">
        <emissions CO_abs="0" CO2_abs="0" HC_abs="0" PMx_abs="0" NOx_abs="0" fuel_abs="0" electricity_abs="82.617424"/>
    </tripinfo>
    <tripinfo id="vehicle_67" depart="4.80" departLane="road0_0" departPos="4.10" departPosLat="0.00" departSpeed="3.93" departDelay="0.48" arrival="28.40" arrivalLane="-road2_0" arrivalPos="19.96" arrivalPosLat="0.00" arrivalSpeed="11.02" duration="23.60" routeLength="206.37" waitingTime="0.00" waitingCount="0" stopTime="0.00" timeLoss="5.86" rerouteNo="0" devices="tripinfo_vehicle_67 emissions_vehicle_67 battery_vehicle_67" vType="human" speedFactor="0.91" vaporized="">
        <emissions CO_abs="0" CO2_abs="0" HC_abs="0" PMx_abs="0" NOx_abs="0" fuel_abs="0" electricity_abs="66.937543"/>
    </tripinfo>
    <tripinfo id="vehicle_115" depart="4.80" departLane="road2_0" departPos="4.10" departPosLat="0.00" departSpeed="1.86" departDelay="2.39" arrival="28.80" arrivalLane="-road0_0" arrivalPos="19.96" arrivalPosLat="0.00" arrivalSpeed="12.89" duration="24.00" routeLength="206.37" waitingTime="0.00" waitingCount="0" stopTime="0.00" timeLoss="6.04" rerouteNo="1" devices="tripinfo_vehicle_115 routing_vehicle_115 emissions_vehicle_115 battery_vehicle_115" vType="human" speedFactor="0.92" vaporized="">
        <emissions CO_abs="0" CO2_abs="0" HC_abs="0" PMx_abs="0" NOx_abs="0" fuel_abs="0" electricity_abs="84.981110"/>
    </tripinfo>
    <tripinfo id="vehicle_31" depart="7.20" departLane="road2_0" departPos="4.10" departPosLat="0.00" departSpeed="2.37" departDelay="4.11" arrival="30.80" arrivalLane="-road0_0" arrivalPos="19.96" arrivalPosLat="0.00" arrivalSpeed="12.65" duration="23.60" routeLength="206.37" waitingTime="0.00" waitingCount="0" stopTime="0.00" timeLoss="7.49" rerouteNo="1" devices="tripinfo_vehicle_31 routing_vehicle_31 emissions_vehicle_31 battery_vehicle_31" vType="human" speedFactor="1.15" vaporized="">
        <emissions CO_abs="0" CO2_abs="0" HC_abs="0" PMx_abs="0" NOx_abs="0" fuel_abs="0" electricity_abs="84.050611"/>
    </tripinfo>
    <tripinfo id="vehicle_86" depart="6.40" departLane="road0_0" departPos="4.10" departPosLat="0.00" departSpeed="0.73" departDelay="1.28" arrival="30.80" arrivalLane="-road2_0" arrivalPos="19.96" arrivalPosLat="0.00" arrivalSpeed="12.21" duration="24.40" routeLength="206.37" waitingTime="0.00" waitingCount="0" stopTime="0.00" timeLoss="7.86" rerouteNo="0" devices="tripinfo_vehicle_86 emissions_vehicle_86 battery_vehicle_86" vType="human" speedFactor="1.00" vaporized="">
        <emissions CO_abs="0" CO2_abs="0" HC_abs="0" PMx_abs="0" NOx_abs="0" fuel_abs="0" electricity_abs="79.290626"/>
    </tripinfo>
    <tripinfo id="vehicle_111" depart="5.60" departLane="road3_0" departPos="4.10" departPosLat="0.00" departSpeed="2.64" departDelay="3.32" arrival="31.20" arrivalLane="-road1_0" arrivalPos="19.96" arrivalPosLat="0.00" arrivalSpeed="11.07" duration="25.60" routeLength="206.37" waitingTime="0.00" waitingCount="0" stopTime="0.00" timeLoss="6.60" rerouteNo="1" devices="tripinfo_vehicle_111 routing_vehicle_111 emissions_vehicle_111 battery_vehicle_111" vType="human" speedFactor="0.87" vaporized="">
        <emissions CO_abs="0" CO2_abs="0" HC_abs="0" PMx_abs="0" NOx_abs="0" fuel_abs="0" electricity_abs="66.882904"/>
    </tripinfo>
    <tripinfo id="vehicle_34" depart="1.20" departLane="road2_0" departPos="4.10" departPosLat="0.00" departSpeed="5.28" departDelay="0.01" arrival="31.60" arrivalLane="-road3_0" arrivalPos="19.96" arrivalPosLat="0.00" arrivalSpeed="11.57" duration="30.40" routeLength="289.97" waitingTime="0.00" waitingCount="0" stopTime="0.00" timeLoss="7.73" rerouteNo="1" devices="tripinfo_vehicle_34 routing_vehicle_34 emissions_vehicle_34 battery_vehicle_34" vType="human" speedFactor="0.99" vaporized="">
        <emissions CO_abs="0" CO2_abs="0" HC_abs="0" PMx_abs="0" NOx_abs="0" fuel_abs="0" electricity_abs="91.528035"/>
    </tripinfo>
    <tripinfo id="vehicle_76" depart="2.40" departLane="road2_0" departPos="4.10" departPosLat="0.00" departSpeed="1.56" departDelay="0.74" arrival="33.20" arrivalLane="-road3_0" arrivalPos="19.96" arrivalPosLat="0.00" arrivalSpeed="12.44" duration="30.80" routeLength="289.97" waitingTime="0.00" waitingCount="0" stopTime="0.00" timeLoss="8.58" rerouteNo="1" devices="tripinfo_vehicle_76 routing_vehicle_76 emissions_vehicle_76 battery_vehicle_76" vType="human" speedFactor="1.03" vaporized="">
        <emissions CO_abs="0" CO2_abs="0" HC_abs="0" PMx_abs="0" NOx_abs="0" fuel_abs="0" electricity_abs="101.103762"/>
    </tripinfo>
    <tripinfo id="vehicle_25" depart="1.60" departLane="road1_0" departPos="4.10" departPosLat="0.00" departSpeed="3.19" departDelay="0.22" arrival="33.60" arrivalLane="-road2_0" arrivalPos="19.96" arrivalPosLat="0.00" arrivalSpeed="11.84" duration="32.00" routeLength="289.97" waitingTime="0.00" waitingCount="0" stopTime="0.00" timeLoss="6.52" rerouteNo="1" devices="tripinfo_vehicle_25 routing_vehicle_25 emissions_vehicle_25 battery_vehicle_25" vType="human" speedFactor="0.87" vaporized="">
        <emissions CO_abs="0" CO2_abs="0" HC_abs="0" PMx_abs="0" NOx_abs="0" fuel_abs="0" electricity_abs="87.007444"/>
    </tripinfo>
    <tripinfo id="vehicle_74" depart="9.60" departLane="road2_0" departPos="4.10" departPosLat="0.00" departSpeed="2.96" departDelay="6.51" arrival="34.00" arrivalLane="-road1_0" arrivalPos="19.96" arrivalPosLat="0.00" arrivalSpeed="11.66" duration="24.40" routeLength="122.77" waitingTime="4.80" waitingCount="1" stopTime="0.00" timeLoss="13.74" rerouteNo="1" devices="tripinfo_vehicle_74 routing_vehicle_74 emissions_vehicle_74 battery_vehicle_74" vType="human" speedFactor="0.96" vaporized="">
        <emissions CO_abs="0" CO2_abs="0" HC_abs="0" PMx_abs="0" NOx_abs="0" fuel_abs="0" electricity_abs="55.289745"/>
    </tripinfo>
    <tripinfo id="vehicle_5" depart="0.40" departLane="road3_0" departPos="4.10" departPosLat="0.00" departSpeed="7.94" departDelay="0.23" arrival="34.40" arrivalLane="-road0_0" arrivalPos="19.96" arrivalPosLat="0.00" arrivalSpeed="11.31" duration="34.00" routeLength="289.97" waitingTime="0.00" waitingCount="0" stopTime="0.00" timeLoss="7.05" rerouteNo="1" devices="tripinfo_vehicle_5 routing_vehicle_5 emissions_vehicle_5 battery_vehicle_5" vType="human" speedFactor="0.83" vaporized="">
        <emissions CO_abs="0" CO2_abs="0" HC_abs="0" PMx_abs="0" NOx_abs="0" fuel_abs="0" electricity_abs="66.126354"/>
    </tripinfo>
    <tripinfo id="vehicle_71" depart="2.80" departLane="road1_0" departPos="4.10" departPosLat="0.00" departSpeed="1.12" departDelay="1.56" arrival="35.60" arrivalLane="-road2_0" arrivalPos="19.96" arrivalPosLat="0.00" arrivalSpeed="12.60" duration="32.80" routeLength="289.97" waitingTime="0.00" waitingCount="0" stopTime="0.00" timeLoss="9.85" rerouteNo="1" devices="tripinfo_vehicle_71 routing_vehicle_71 emissions_vehicle_71 battery_vehicle_71" vType="human" speedFactor="0.97" vaporized="">
        <emissions CO_abs="0" CO2_abs="0" HC_abs="0" PMx_abs="0" NOx_abs="0" fuel_abs="0" electricity_abs="95.987145"/>
    </tripinfo>
    <tripinfo id="vehicle_80" depart="4.80" departLane="road1_0" departPos="4.10" departPosLat="0.00" departSpeed="2.97" departDelay="3.56" arrival="38.00" arrivalLane="-road2_0" arrivalPos="19.96" arrivalPosLat="0.00" arrivalSpeed="11.65" duration="33.20" routeLength="289.97" waitingTime="0.00" waitingCount="0" stopTime="0.00" timeLoss="10.83" rerouteNo="1" devices="tripinfo_vehicle_80 routing_vehicle_80 emissions_vehicle_80 battery_vehicle_80" vType="human" speedFactor="1.03" vaporized="">
        <emissions CO_abs="0" CO2_abs="0" HC_abs="0" PMx_abs="0" NOx_abs="0" fuel_abs="0" electricity_abs="89.120498"/>
    </tripinfo>
    <tripinfo id="vehicle_117" depart="10.80" departLane="road0_0" departPos="4.10" departPosLat="0.00" departSpeed="1.94" departDelay="3.70" arrival="38.00" arrivalLane="-road3_0" arrivalPos="19.96" arrivalPosLat="0.00" arrivalSpeed="12.78" duration="27.20" routeLength="122.77" waitingTime="6.80" waitingCount="1" stopTime="0.00" timeLoss="17.06" rerouteNo="0" devices="tripinfo_vehicle_117 emissions_vehicle_117 battery_vehicle_117" vType="human" speedFactor="1.00" vaporized="">
        <emissions CO_abs="0" CO2_abs="0" HC_abs="0" PMx_abs="0" NOx_abs="0" fuel_abs="0" electricity_abs="64.355466"/>
    </tripinfo>
    <tripinfo id="vehicle_92" depart="14.00" departLane="road2_0" departPos="4.10" departPosLat="0.00" departSpeed="1.89" departDelay="9.65" arrival="40.40" arrivalLane="-road1_0" arrivalPos="19.96" arrivalPosLat="0.00" arrivalSpeed="11.17" duration="26.40" routeLength="122.77" waitingTime="2.80" waitingCount="1" stopTime="0.00" timeLoss="13.71" rerouteNo="1" devices="tripinfo_vehicle_92 routing_vehicle_92 emissions_vehicle_92 battery_vehicle_92" vType="human" speedFactor="0.83" vaporized="">
        <emissions CO_abs="0" CO2_abs="0" HC_abs="0" PMx_abs="0" NOx_abs="0" fuel_abs="0" electricity_abs="50.546500"/>
    </tripinfo>
    <tripinfo id="vehicle_33" depart="8.80" departLane="road0_0" departPos="4.10" departPosLat="0.00" departSpeed="3.58" departDelay="2.54" arrival="42.80" arrivalLane="-road2_0" arrivalPos="19.96" arrivalPosLat="0.00" arrivalSpeed="12.83" duration="34.00" routeLength="206.37" waitingTime="8.00" waitingCount="1" stopTime="0.00" timeLoss="17.85" rerouteNo="0" devices="tripinfo_vehicle_33 emissions_vehicle_33 battery_vehicle_33" vType="human" speedFactor="1.17" vaporized="">
        <emissions CO_abs="0" CO2_abs="0" HC_abs="0" PMx_abs="0" NOx_abs="0" fuel_abs="0" electricity_abs="84.555116"/>
    </tripinfo>
    <tripinfo id="vehicle_18" depart="25.60" departLane="road2_0" departPos="4.10" departPosLat="0.00" departSpeed="1.74" departDelay="20.72" arrival="43.60" arrivalLane="-road1_0" arrivalPos="19.96" arrivalPosLat="0.00" arrivalSpeed="11.45" duration="18.00" routeLength="122.77" waitingTime="0.00" waitingCount="0" stopTime="0.00" timeLoss="6.93" rerouteNo="1" devices="tripinfo_vehicle_18 routing_vehicle_18 emissions_vehicle_18 battery_vehicle_18" vType="human" speedFactor="0.94" vaporized="">
        <emissions CO_abs="0" CO2_abs="0" HC_abs="0" PMx_abs="0" NOx_abs="0" fuel_abs="0" electricity_abs="53.636609"/>
    </tripinfo>
    <tripinfo id="vehicle_108" depart="6.80" departLane="road1_0" departPos="4.10" departPosLat="0.00" departSpeed="2.48" departDelay="4.06" arrival="44.00" arrivalLane="-road3_0" arrivalPos="19.96" arrivalPosLat="0.00" arrivalSpeed="11.79" duration="37.20" routeLength="206.37" waitingTime="8.40" waitingCount="1" stopTime="0.00" timeLoss="20.93" rerouteNo="1" devices="tripinfo_vehicle_108 routing_vehicle_108 emissions_vehicle_108 battery_vehicle_108" vType="human" speedFactor="1.06" vaporized="">
        <emissions CO_abs="0" CO2_abs="0" HC_abs="0" PMx_abs="0" NOx_abs="0" fuel_abs="0" electricity_abs="73.170951"/>
    </tripinfo>
    <tripinfo id="vehicle_29" depart="11.60" departLane="road2_0" departPos="4.10" departPosLat="0.00" departSpeed="1.66" departDelay="7.56" arrival="45.20" arrivalLane="-road0_0" arrivalPos="19.96" arrivalPosLat="0.00" arrivalSpeed="11.56" duration="33.60" routeLength="206.37" waitingTime="3.60" waitingCount="1" stopTime="0.00" timeLoss="16.00" rerouteNo="1" devices="tripinfo_vehicle_29 routing_vehicle_29 emissions_vehicle_29 battery_vehicle_29" vType="human" speedFactor="0.93" vaporized="">
        <emissions CO_abs="0" CO2_abs="0" HC_abs="0" PMx_abs="0" NOx_abs="0" fuel_abs="0" electricity_abs="72.808645"/>
    </tripinfo>
    <tripinfo id="vehicle_61" depart="13.20" departLane="road0_0" departPos="4.10" departPosLat="0.00" departSpeed="1.55" departDelay="5.70" arrival="48.00" arrivalLane="-road2_0" arrivalPos="19.96" arrivalPosLat="0.00" arrivalSpeed="12.28" duration="34.80" routeLength="206.37" waitingTime="5.60" waitingCount="1" stopTime="0.00" timeLoss="18.61" rerouteNo="0" devices="tripinfo_vehicle_61 emissions_vehicle_61 battery_vehicle_61" vType="human" speedFactor="1.12" vaporized="">
        <emissions CO_abs="0" CO2_abs="0" HC_abs="0" PMx_abs="0" NOx_abs="0" fuel_abs="0" electricity_abs="78.975858"/>
    </tripinfo>
    <tripinfo id="vehicle_21" depart="32.40" departLane="road2_0" departPos="4.10" departPosLat="0.00" departSpeed="2.29" departDelay="24.68" arrival="50.40" arrivalLane="-road1_0" arrivalPos="19.96" arrivalPosLat="0.00" arrivalSpeed="11.66" duration="18.00" routeLength="122.77" waitingTime="0.00" waitingCount="0" stopTime="0.00" timeLoss="7.57" rerouteNo="1" devices="tripinfo_vehicle_21 routing_vehicle_21 emissions_vehicle_21 battery_vehicle_21" vType="human" speedFactor="1.01" vaporized="">
        <emissions CO_abs="0" CO2_abs="0" HC_abs="0" PMx_abs="0" NOx_abs="0" fuel_abs="0" electricity_abs="54.817099"/>
    </tripinfo>
    <tripinfo id="vehicle_89" depart="9.20" departLane="road1_0" departPos="4.10" departPosLat="0.00" departSpeed="3.30" departDelay="6.13" arrival="50.40" arrivalLane="-road2_0" arrivalPos="19.96" arrivalPosLat="0.00" arrivalSpeed="11.94" duration="41.20" routeLength="289.97" waitingTime="6.40" waitingCount="1" stopTime="0.00" timeLoss="18.65" rerouteNo="1" devices="tripinfo_vehicle_89 routing_vehicle_89 emissions_vehicle_89 battery_vehicle_89" vType="human" speedFactor="1.02" vaporized="">
        <emissions CO_abs="0" CO2_abs="0" HC_abs="0" PMx_abs="0" NOx_abs="0" fuel_abs="0" electricity_abs="95.249926"/>
    </tripinfo>
    <tripinfo id="vehicle_32" depart="11.20" departLane="road1_0" departPos="4.10" departPosLat="0.00" departSpeed="1.15" departDelay="6.74" arrival="52.80" arrivalLane="-road2_0" arrivalPos="19.96" arrivalPosLat="0.00" arrivalSpeed="12.11" duration="41.60" routeLength="289.97" waitingTime="5.60" waitingCount="1" stopTime="0.00" timeLoss="19.02" rerouteNo="1" devices="tripinfo_vehicle_32 routing_vehicle_32 emissions_vehicle_32 battery_vehicle_32" vType="human" speedFactor="1.01" vaporized="">
        <emissions CO_abs="0" CO2_abs="0" HC_abs="0" PMx_abs="0" NOx_abs="0" fuel_abs="0" electricity_abs="98.072022"/>
    </tripinfo>
    <tripinfo id="vehicle_95" depart="27.60" departLane="road2_0" departPos="4.10" departPosLat="0.00" departSpeed="2.04" departDelay="21.47" arrival="53.20" arrivalLane="-road0_0" arrivalPos="19.96" arrivalPosLat="0.00" arrivalSpeed="12.83" duration="25.60" routeLength="206.37" waitingTime="0.00" waitingCount="0" stopTime="0.00" timeLoss="9.33" rerouteNo="1" devices="tripinfo_vehicle_95 routing_vehicle_95 emissions_vehicle_95 battery_vehicle_95" vType="human" speedFactor="1.06" vaporized="">
        <emissions CO_abs="0" CO2_abs="0" HC_abs="0" PMx_abs="0" NOx_abs="0" fuel_abs="0" electricity_abs="83.216806"/>
    </tripinfo>
    <tripinfo id="vehicle_49" depart="22.80" departLane="road2_0" departPos="4.10" departPosLat="0.00" departSpeed="1.24" departDelay="18.05" arrival="58.80" arrivalLane="-road3_0" arrivalPos="19.96" arrivalPosLat="0.00" arrivalSpeed="11.50" duration="36.00" routeLength="289.97" waitingTime="0.00" waitingCount="0" stopTime="0.00" timeLoss="9.51" rerouteNo="1" devices="tripinfo_vehicle_49 routing_vehicle_49 emissions_vehicle_49 battery_vehicle_49" vType="human" speedFactor="0.85" vaporized="">
        <emissions CO_abs="0" CO2_abs="0" HC_abs="0" PMx_abs="0" NOx_abs="0" fuel_abs="0" electricity_abs="84.439803"/>
    </tripinfo>
    <tripinfo id="vehicle_30" depart="41.60" departLane="road0_0" departPos="4.10" departPosLat="0.00" departSpeed="1.91" departDelay="25.15" arrival="60.40" arrivalLane="-road3_0" arrivalPos="19.96" arrivalPosLat="0.00" arrivalSpeed="12.31" duration="18.80" routeLength="122.77" waitingTime="0.00" waitingCount="0" stopTime="0.00" timeLoss="8.72" rerouteNo="0" devices="tripinfo_vehicle_30 emissions_vehicle_30 battery_vehicle_30" vType="human" speedFactor="1.18" vaporized="">
        <emissions CO_abs="0" CO2_abs="0" HC_abs="0" PMx_abs="0" NOx_abs="0" fuel_abs="0" electricity_abs="58.695900"/>
    </tripinfo>
    <tripinfo id="vehicle_110" depart="25.20" departLane="road0_0" departPos="4.10" departPosLat="0.00" departSpeed="0.42" departDelay="17.53" arrival="61.60" arrivalLane="-road1_0" arrivalPos="19.96" arrivalPosLat="0.00" arrivalSpeed="11.09" duration="36.40" routeLength="289.97" waitingTime="2.40" waitingCount="1" stopTime="0.00" timeLoss="12.40" rerouteNo="0" devices="tripinfo_vehicle_110 emissions_vehicle_110 battery_vehicle_110" vType="human" speedFactor="0.93" vaporized="">
        <emissions CO_abs="0" CO2_abs="0" HC_abs="0" PMx_abs="0" NOx_abs="0" fuel_abs="0" electricity_abs="91.556066"/>
    </tripinfo>
    <tripinfo id="vehicle_109" depart="39.60" departLane="road0_0" departPos="4.10" departPosLat="0.00" departSpeed="2.87" departDelay="27.81" arrival="62.80" arrivalLane="-road2_0" arrivalPos="19.96" arrivalPosLat="0.00" arrivalSpeed="11.95" duration="23.20" routeLength="206.37" waitingTime="0.00" waitingCount="0" stopTime="0.00" timeLoss="6.07" rerouteNo="0" devices="tripinfo_vehicle_109 emissions_vehicle_109 battery_vehicle_109" vType="human" speedFactor="0.96" vaporized="">
        <emissions CO_abs="0" CO2_abs="0" HC_abs="0" PMx_abs="0" NOx_abs="0" fuel_abs="0" electricity_abs="76.809922"/>
    </tripinfo>
    <tripinfo id="vehicle_19" depart="30.40" departLane="road2_0" departPos="4.10" departPosLat="0.00" departSpeed="2.80" departDelay="22.46" arrival="63.20" arrivalLane="-road3_0" arrivalPos="19.96" arrivalPosLat="0.00" arrivalSpeed="12.26" duration="32.80" routeLength="289.97" waitingTime="0.00" waitingCount="0" stopTime="0.00" timeLoss="10.72" rerouteNo="1" devices="tripinfo_vehicle_19 routing_vehicle_19 emissions_vehicle_19 battery_vehicle_19" vType="human" speedFactor="1.16" vaporized="">
        <emissions CO_abs="0" CO2_abs="0" HC_abs="0" PMx_abs="0" NOx_abs="0" fuel_abs="0" electricity_abs="94.565009"/>
    </tripinfo>
    <tripinfo id="vehicle_114" depart="27.60" departLane="road0_0" departPos="4.10" departPosLat="0.00" departSpeed="1.40" departDelay="19.81" arrival="63.60" arrivalLane="-road1_0" arrivalPos="19.96" arrivalPosLat="0.00" arrivalSpeed="12.88" duration="36.00" routeLength="289.97" waitingTime="2.00" waitingCount="1" stopTime="0.00" timeLoss="13.56" rerouteNo="0" devices="tripinfo_vehicle_114 emissions_vehicle_114 battery_vehicle_114" vType="human" speedFactor="1.10" vaporized="">
        <emissions CO_abs="0" CO2_abs="0" HC_abs="0" PMx_abs="0" NOx_abs="0" fuel_abs="0" electricity_abs="107.241091"/>
    </tripinfo>
    <tripinfo id="vehicle_53" depart="42.80" departLane="road2_0" departPos="4.10" departPosLat="0.00" departSpeed="2.29" departDelay="32.32" arrival="64.80" arrivalLane="-road0_0" arrivalPos="19.96" arrivalPosLat="0.00" arrivalSpeed="12.20" duration="22.00" routeLength="206.37" waitingTime="0.00" waitingCount="0" stopTime="0.00" timeLoss="5.86" rerouteNo="1" devices="tripinfo_vehicle_53 routing_vehicle_53 emissions_vehicle_53 battery_vehicle_53" vType="human" speedFactor="1.10" vaporized="">
        <emissions CO_abs="0" CO2_abs="0" HC_abs="0" PMx_abs="0" NOx_abs="0" fuel_abs="0" electricity_abs="82.691266"/>
    </tripinfo>
    <tripinfo id="vehicle_60" depart="34.80" departLane="road2_0" departPos="4.10" departPosLat="0.00" departSpeed="2.82" departDelay="26.86" arrival="65.60" arrivalLane="-road3_0" arrivalPos="19.96" arrivalPosLat="0.00" arrivalSpeed="11.86" duration="30.80" routeLength="289.97" waitingTime="0.00" waitingCount="0" stopTime="0.00" timeLoss="8.45" rerouteNo="1" devices="tripinfo_vehicle_60 routing_vehicle_60 emissions_vehicle_60 battery_vehicle_60" vType="human" speedFactor="1.08" vaporized="">
        <emissions CO_abs="0" CO2_abs="0" HC_abs="0" PMx_abs="0" NOx_abs="0" fuel_abs="0" electricity_abs="95.136414"/>
    </tripinfo>
    <tripinfo id="vehicle_87" depart="30.00" departLane="road0_0" departPos="4.10" departPosLat="0.00" departSpeed="1.50" departDelay="20.74" arrival="66.00" arrivalLane="-road1_0" arrivalPos="19.96" arrivalPosLat="0.00" arrivalSpeed="13.81" duration="36.00" routeLength="289.97" waitingTime="0.80" waitingCount="1" stopTime="0.00" timeLoss="13.48" rerouteNo="0" devices="tripinfo_vehicle_87 emissions_vehicle_87 battery_vehicle_87" vType="human" speedFactor="1.04" vaporized="">
        <emissions CO_abs="0" CO2_abs="0" HC_abs="0" PMx_abs="0" NOx_abs="0" fuel_abs="0" electricity_abs="111.315321"/>
    </tripinfo>
    <tripinfo id="vehicle_2" depart="10.00" departLane="road3_0" departPos="4.10" departPosLat="0.00" departSpeed="2.27" departDelay="4.20" arrival="67.60" arrivalLane="-road2_0" arrivalPos="19.96" arrivalPosLat="0.00" arrivalSpeed="13.30" duration="57.60" routeLength="122.77" waitingTime="38.00" waitingCount="1" stopTime="0.00" timeLoss="47.17" rerouteNo="1" devices="tripinfo_vehicle_2 routing_vehicle_2 emissions_vehicle_2 battery_vehicle_2" vType="human" speedFactor="1.01" vaporized="">
        <emissions CO_abs="0" CO2_abs="0" HC_abs="0" PMx_abs="0" NOx_abs="0" fuel_abs="0" electricity_abs="71.577569"/>
    </tripinfo>
    <tripinfo id="vehicle_12" depart="45.20" departLane="road2_0" departPos="4.10" departPosLat="0.00" departSpeed="4.42" departDelay="33.96" arrival="68.00" arrivalLane="-road1_0" arrivalPos="19.96" arrivalPosLat="0.00" arrivalSpeed="12.20" duration="22.80" routeLength="122.77" waitingTime="3.60" waitingCount="1" stopTime="0.00" timeLoss="12.44" rerouteNo="1" devices="tripinfo_vehicle_12 routing_vehicle_12 emissions_vehicle_12 battery_vehicle_12" vType="human" speedFactor="1.05" vaporized="">
        <emissions CO_abs="0" CO2_abs="0" HC_abs="0" PMx_abs="0" NOx_abs="0" fuel_abs="0" electricity_abs="54.431840"/>
    </tripinfo>
    <tripinfo id="vehicle_39" depart="36.80" departLane="road2_0" departPos="4.10" departPosLat="0.00" departSpeed="2.09" departDelay="28.74" arrival="68.80" arrivalLane="-road3_0" arrivalPos="19.96" arrivalPosLat="0.00" arrivalSpeed="11.49" duration="32.00" routeLength="289.97" waitingTime="0.00" waitingCount="0" stopTime="0.00" timeLoss="7.36" rerouteNo="1" devices="tripinfo_vehicle_39 routing_vehicle_39 emissions_vehicle_39 battery_vehicle_39" vType="human" speedFactor="0.90" vaporized="">
        <emissions CO_abs="0" CO2_abs="0" HC_abs="0" PMx_abs="0" NOx_abs="0" fuel_abs="0" electricity_abs="87.147052"/>
    </tripinfo>
    <tripinfo id="vehicle_51" depart="39.20" departLane="road2_0" departPos="4.10" departPosLat="0.00" departSpeed="3.74" departDelay="30.67" arrival="70.80" arrivalLane="-road3_0" arrivalPos="19.96" arrivalPosLat="0.00" arrivalSpeed="11.41" duration="31.60" routeLength="289.97" waitingTime="0.00" waitingCount="0" stopTime="0.00" timeLoss="9.65" rerouteNo="1" devices="tripinfo_vehicle_51 routing_vehicle_51 emissions_vehicle_51 battery_vehicle_51" vType="human" speedFactor="1.17" vaporized="">
        <emissions CO_abs="0" CO2_abs="0" HC_abs="0" PMx_abs="0" NOx_abs="0" fuel_abs="0" electricity_abs="90.738481"/>
    </tripinfo>
    <tripinfo id="vehicle_7" depart="26.00" departLane="road1_0" departPos="4.10" departPosLat="0.00" departSpeed="3.46" departDelay="18.92" arrival="71.60" arrivalLane="-road0_0" arrivalPos="19.96" arrivalPosLat="0.00" arrivalSpeed="12.08" duration="45.60" routeLength="122.77" waitingTime="24.40" waitingCount="1" stopTime="0.00" timeLoss="34.14" rerouteNo="1" devices="tripinfo_vehicle_7 routing_vehicle_7 emissions_vehicle_7 battery_vehicle_7" vType="human" speedFactor="0.89" vaporized="">
        <emissions CO_abs="0" CO2_abs="0" HC_abs="0" PMx_abs="0" NOx_abs="0" fuel_abs="0" electricity_abs="56.955375"/>
    </tripinfo>
    <tripinfo id="vehicle_105" depart="36.80" departLane="road0_0" departPos="4.10" departPosLat="0.00" departSpeed="1.33" departDelay="25.13" arrival="71.60" arrivalLane="-road1_0" arrivalPos="19.96" arrivalPosLat="-0.00" arrivalSpeed="11.83" duration="34.80" routeLength="289.97" waitingTime="0.00" waitingCount="0" stopTime="0.00" timeLoss="12.51" rerouteNo="0" devices="tripinfo_vehicle_105 emissions_vehicle_105 battery_vehicle_105" vType="human" speedFactor="1.07" vaporized="">
        <emissions CO_abs="0" CO2_abs="0" HC_abs="0" PMx_abs="0" NOx_abs="0" fuel_abs="0" electricity_abs="95.862090"/>
    </tripinfo>
    <tripinfo id="vehicle_99" depart="55.60" departLane="road3_0" departPos="4.10" departPosLat="0.00" departSpeed="1.30" departDelay="49.43" arrival="72.80" arrivalLane="-road2_0" arrivalPos="19.96" arrivalPosLat="0.00" arrivalSpeed="11.89" duration="17.20" routeLength="122.77" waitingTime="0.00" waitingCount="0" stopTime="0.00" timeLoss="6.90" rerouteNo="1" devices="tripinfo_vehicle_99 routing_vehicle_99 emissions_vehicle_99 battery_vehicle_99" vType="human" speedFactor="1.10" vaporized="">
        <emissions CO_abs="0" CO2_abs="0" HC_abs="0" PMx_abs="0" NOx_abs="0" fuel_abs="0" electricity_abs="59.291898"/>
    </tripinfo>
    <tripinfo id="vehicle_82" depart="40.80" departLane="road2_0" departPos="4.10" departPosLat="0.00" departSpeed="3.59" departDelay="31.26" arrival="73.20" arrivalLane="-road3_0" arrivalPos="19.96" arrivalPosLat="0.00" arrivalSpeed="12.48" duration="32.40" routeLength="289.97" waitingTime="0.00" waitingCount="0" stopTime="0.00" timeLoss="10.15" rerouteNo="1" devices="tripinfo_vehicle_82 routing_vehicle_82 emissions_vehicle_82 battery_vehicle_82" vType="human" speedFactor="1.02" vaporized="">
        <emissions CO_abs="0" CO2_abs="0" HC_abs="0" PMx_abs="0" NOx_abs="0" fuel_abs="0" electricity_abs="95.827523"/>
    </tripinfo>
    <tripinfo id="vehicle_83" depart="45.60" departLane="road0_0" departPos="4.10" departPosLat="0.00" departSpeed="3.20" departDelay="25.38" arrival="76.80" arrivalLane="-road3_0" arrivalPos="19.96" arrivalPosLat="0.00" arrivalSpeed="12.92" duration="31.20" routeLength="122.77" waitingTime="11.20" waitingCount="1" stopTime="0.00" timeLoss="20.63" rerouteNo="0" devices="tripinfo_vehicle_83 emissions_vehicle_83 battery_vehicle_83" vType="human" speedFactor="0.97" vaporized="">
        <emissions CO_abs="0" CO2_abs="0" HC_abs="0" PMx_abs="0" NOx_abs="0" fuel_abs="0" electricity_abs="61.813228"/>