<?xml version="1.0" encoding="UTF-8"?>

<!-- generated on 2025-05-29 08:49:53 by Eclipse SUMO sumo Version v1_20_0+0085-e155ab8699b
<configuration xmlns:xsi="http://www.w3.org/2001/XMLSchema-instance" xsi:noNamespaceSchemaLocation="http://sumo.dlr.de/xsd/sumoConfiguration.xsd">

    <input>
        <net-file value="../networks/roundabout.net.xml"/>
        <route-files value="../networks/routes1.rou.xml"/>
    </input>

    <output>
        <output-prefix value="22-"/>
        <battery-output.precision value="4"/>
        <tripinfo-output value="../networks/output_data/output_kan/tripinfo/tripinfo-output.xml"/>
        <collision-output value="../networks/output_data/output_kan/collision/collision-output.xml"/>
    </output>

    <time>
        <begin value="0"/>
        <step-length value="0.4"/>
    </time>

    <processing>
        <step-method.ballistic value="true"/>
        <lateral-resolution value="3.2"/>
        <collision.action value="warn"/>
        <collision.mingap-factor value="0"/>
        <time-to-teleport value="-1"/>
        <random-depart-offset value="5"/>
    </processing>

    <report>
        <no-warnings value="True"/>
        <no-step-log value="True"/>
    </report>

    <emissions>
        <device.emissions.probability value="1"/>
    </emissions>

    <battery>
        <device.battery.probability value="1"/>
    </battery>

    <traci_server>
        <remote-port value="33511"/>
    </traci_server>

    <gui_only>
        <quit-on-end value="True"/>
        <start value="True"/>
    </gui_only>

</configuration>
-->

<tripinfos xmlns:xsi="http://www.w3.org/2001/XMLSchema-instance" xsi:noNamespaceSchemaLocation="http://sumo.dlr.de/xsd/tripinfo_file.xsd">
    <tripinfo id="vehicle_80" depart="0.40" departLane="road0_0" departPos="4.10" departPosLat="0.00" departSpeed="9.48" departDelay="0.24" arrival="14.80" arrivalLane="-road3_0" arrivalPos="19.96" arrivalPosLat="0.00" arrivalSpeed="11.25" duration="14.40" routeLength="122.77" waitingTime="0.00" waitingCount="0" stopTime="0.00" timeLoss="4.23" rerouteNo="0" devices="tripinfo_vehicle_80 emissions_vehicle_80 battery_vehicle_80" vType="human" speedFactor="1.03" vaporized="">
        <emissions CO_abs="0" CO2_abs="0" HC_abs="0" PMx_abs="0" NOx_abs="0" fuel_abs="0" electricity_abs="35.474553"/>
    </tripinfo>
    <tripinfo id="vehicle_41" depart="1.60" departLane="road1_0" departPos="4.10" departPosLat="0.00" departSpeed="5.40" departDelay="0.07" arrival="17.20" arrivalLane="-road0_0" arrivalPos="19.96" arrivalPosLat="0.00" arrivalSpeed="12.29" duration="15.60" routeLength="122.77" waitingTime="0.00" waitingCount="0" stopTime="0.00" timeLoss="4.74" rerouteNo="1" devices="tripinfo_vehicle_41 routing_vehicle_41 emissions_vehicle_41 battery_vehicle_41" vType="human" speedFactor="0.96" vaporized="">
        <emissions CO_abs="0" CO2_abs="0" HC_abs="0" PMx_abs="0" NOx_abs="0" fuel_abs="0" electricity_abs="56.112437"/>
    </tripinfo>
    <tripinfo id="vehicle_29" depart="5.20" departLane="road1_0" departPos="4.10" departPosLat="0.00" departSpeed="2.11" departDelay="2.98" arrival="22.80" arrivalLane="-road0_0" arrivalPos="19.96" arrivalPosLat="0.00" arrivalSpeed="12.67" duration="17.60" routeLength="122.77" waitingTime="0.00" waitingCount="0" stopTime="0.00" timeLoss="6.36" rerouteNo="1" devices="tripinfo_vehicle_29 routing_vehicle_29 emissions_vehicle_29 battery_vehicle_29" vType="human" speedFactor="0.93" vaporized="">
        <emissions CO_abs="0" CO2_abs="0" HC_abs="0" PMx_abs="0" NOx_abs="0" fuel_abs="0" electricity_abs="60.609139"/>
    </tripinfo>
    <tripinfo id="vehicle_113" depart="1.60" departLane="road3_0" departPos="4.10" departPosLat="0.00" departSpeed="8.28" departDelay="0.16" arrival="22.80" arrivalLane="-road1_0" arrivalPos="19.96" arrivalPosLat="0.00" arrivalSpeed="12.61" duration="21.20" routeLength="206.37" waitingTime="0.00" waitingCount="0" stopTime="0.00" timeLoss="4.83" rerouteNo="1" devices="tripinfo_vehicle_113 routing_vehicle_113 emissions_vehicle_113 battery_vehicle_113" vType="human" speedFactor="1.01" vaporized="">
        <emissions CO_abs="0" CO2_abs="0" HC_abs="0" PMx_abs="0" NOx_abs="0" fuel_abs="0" electricity_abs="68.910305"/>
    </tripinfo>
    <tripinfo id="vehicle_64" depart="2.00" departLane="road2_0" departPos="4.10" departPosLat="0.00" departSpeed="5.00" departDelay="0.07" arrival="25.20" arrivalLane="-road0_0" arrivalPos="19.96" arrivalPosLat="0.00" arrivalSpeed="11.47" duration="23.20" routeLength="206.37" waitingTime="0.00" waitingCount="0" stopTime="0.00" timeLoss="6.07" rerouteNo="1" devices="tripinfo_vehicle_64 routing_vehicle_64 emissions_vehicle_64 battery_vehicle_64" vType="human" speedFactor="0.94" vaporized="">
        <emissions CO_abs="0" CO2_abs="0" HC_abs="0" PMx_abs="0" NOx_abs="0" fuel_abs="0" electricity_abs="67.277740"/>
    </tripinfo>
    <tripinfo id="vehicle_17" depart="2.40" departLane="road3_0" departPos="4.10" departPosLat="0.00" departSpeed="1.10" departDelay="0.36" arrival="26.00" arrivalLane="-road1_0" arrivalPos="19.96" arrivalPosLat="0.00" arrivalSpeed="11.72" duration="23.60" routeLength="206.37" waitingTime="0.00" waitingCount="0" stopTime="0.00" timeLoss="6.45" rerouteNo="1" devices="tripinfo_vehicle_17 routing_vehicle_17 emissions_vehicle_17 battery_vehicle_17" vType="human" speedFactor="0.94" vaporized="">
        <emissions CO_abs="0" CO2_abs="0" HC_abs="0" PMx_abs="0" NOx_abs="0" fuel_abs="0" electricity_abs="77.436417"/>
    </tripinfo>
    <tripinfo id="vehicle_90" depart="3.20" departLane="road1_0" departPos="4.10" departPosLat="0.00" departSpeed="2.79" departDelay="1.80" arrival="26.80" arrivalLane="-road3_0" arrivalPos="19.96" arrivalPosLat="0.00" arrivalSpeed="12.87" duration="23.60" routeLength="206.37" waitingTime="0.00" waitingCount="0" stopTime="0.00" timeLoss="7.22" rerouteNo="1" devices="tripinfo_vehicle_90 routing_vehicle_90 emissions_vehicle_90 battery_vehicle_90" vType="human" speedFactor="1.02" vaporized="">
        <emissions CO_abs="0" CO2_abs="0" HC_abs="0" PMx_abs="0" NOx_abs="0" fuel_abs="0" electricity_abs="83.598592"/>
    </tripinfo>
    <tripinfo id="vehicle_119" depart="0.40" departLane="road1_0" departPos="4.10" departPosLat="0.00" departSpeed="9.75" departDelay="0.11" arrival="27.20" arrivalLane="-road2_0" arrivalPos="19.96" arrivalPosLat="0.00" arrivalSpeed="12.88" duration="26.80" routeLength="289.97" waitingTime="0.00" waitingCount="0" stopTime="0.00" timeLoss="4.33" rerouteNo="1" devices="tripinfo_vehicle_119 routing_vehicle_119 emissions_vehicle_119 battery_vehicle_119" vType="human" speedFactor="1.07" vaporized="">
        <emissions CO_abs="0" CO2_abs="0" HC_abs="0" PMx_abs="0" NOx_abs="0" fuel_abs="0" electricity_abs="86.851098"/>
    </tripinfo>
    <tripinfo id="vehicle_111" depart="3.20" departLane="road2_0" departPos="4.10" departPosLat="0.00" departSpeed="0.73" departDelay="1.35" arrival="28.80" arrivalLane="-road0_0" arrivalPos="19.96" arrivalPosLat="0.00" arrivalSpeed="11.02" duration="25.60" routeLength="206.37" waitingTime="0.00" waitingCount="0" stopTime="0.00" timeLoss="6.60" rerouteNo="1" devices="tripinfo_vehicle_111 routing_vehicle_111 emissions_vehicle_111 battery_vehicle_111" vType="human" speedFactor="0.87" vaporized="">
        <emissions CO_abs="0" CO2_abs="0" HC_abs="0" PMx_abs="0" NOx_abs="0" fuel_abs="0" electricity_abs="66.613384"/>
    </tripinfo>
    <tripinfo id="vehicle_86" depart="1.20" departLane="road0_0" departPos="4.10" departPosLat="0.00" departSpeed="5.12" departDelay="0.22" arrival="30.00" arrivalLane="-road1_0" arrivalPos="19.96" arrivalPosLat="0.00" arrivalSpeed="12.82" duration="28.80" routeLength="289.97" waitingTime="0.00" waitingCount="0" stopTime="0.00" timeLoss="6.35" rerouteNo="0" devices="tripinfo_vehicle_86 emissions_vehicle_86 battery_vehicle_86" vType="human" speedFactor="1.00" vaporized="">
        <emissions CO_abs="0" CO2_abs="0" HC_abs="0" PMx_abs="0" NOx_abs="0" fuel_abs="0" electricity_abs="100.262260"/>
    </tripinfo>
    <tripinfo id="vehicle_10" depart="2.40" departLane="road0_0" departPos="4.10" departPosLat="0.00" departSpeed="2.08" departDelay="1.07" arrival="32.40" arrivalLane="-road1_0" arrivalPos="19.96" arrivalPosLat="0.00" arrivalSpeed="12.45" duration="30.00" routeLength="289.97" waitingTime="0.00" waitingCount="0" stopTime="0.00" timeLoss="7.79" rerouteNo="0" devices="tripinfo_vehicle_10 emissions_vehicle_10 battery_vehicle_10" vType="human" speedFactor="1.09" vaporized="">
        <emissions CO_abs="0" CO2_abs="0" HC_abs="0" PMx_abs="0" NOx_abs="0" fuel_abs="0" electricity_abs="102.454616"/>
    </tripinfo>
    <tripinfo id="vehicle_55" depart="7.60" departLane="road1_0" departPos="4.10" departPosLat="0.00" departSpeed="4.52" departDelay="5.50" arrival="33.20" arrivalLane="-road0_0" arrivalPos="19.96" arrivalPosLat="0.00" arrivalSpeed="11.69" duration="25.60" routeLength="122.77" waitingTime="5.20" waitingCount="2" stopTime="0.00" timeLoss="15.16" rerouteNo="1" devices="tripinfo_vehicle_55 routing_vehicle_55 emissions_vehicle_55 battery_vehicle_55" vType="human" speedFactor="1.00" vaporized="">
        <emissions CO_abs="0" CO2_abs="0" HC_abs="0" PMx_abs="0" NOx_abs="0" fuel_abs="0" electricity_abs="50.347740"/>
    </tripinfo>
    <tripinfo id="vehicle_93" depart="8.40" departLane="road3_0" departPos="4.10" departPosLat="0.00" departSpeed="2.23" departDelay="4.89" arrival="34.80" arrivalLane="-road2_0" arrivalPos="19.96" arrivalPosLat="0.00" arrivalSpeed="12.49" duration="26.40" routeLength="122.77" waitingTime="6.00" waitingCount="1" stopTime="0.00" timeLoss="15.08" rerouteNo="1" devices="tripinfo_vehicle_93 routing_vehicle_93 emissions_vehicle_93 battery_vehicle_93" vType="human" speedFactor="0.92" vaporized="">
        <emissions CO_abs="0" CO2_abs="0" HC_abs="0" PMx_abs="0" NOx_abs="0" fuel_abs="0" electricity_abs="61.758299"/>
    </tripinfo>
    <tripinfo id="vehicle_107" depart="4.80" departLane="road0_0" departPos="4.10" departPosLat="0.00" departSpeed="3.14" departDelay="2.96" arrival="37.20" arrivalLane="-road1_0" arrivalPos="19.96" arrivalPosLat="0.00" arrivalSpeed="12.32" duration="32.40" routeLength="289.97" waitingTime="0.00" waitingCount="0" stopTime="0.00" timeLoss="9.86" rerouteNo="0" devices="tripinfo_vehicle_107 emissions_vehicle_107 battery_vehicle_107" vType="human" speedFactor="1.03" vaporized="">
        <emissions CO_abs="0" CO2_abs="0" HC_abs="0" PMx_abs="0" NOx_abs="0" fuel_abs="0" electricity_abs="99.631217"/>
    </tripinfo>
    <tripinfo id="vehicle_97" depart="4.40" departLane="road3_0" departPos="4.10" departPosLat="0.00" departSpeed="2.70" departDelay="2.39" arrival="38.00" arrivalLane="-road0_0" arrivalPos="19.96" arrivalPosLat="0.00" arrivalSpeed="12.56" duration="33.60" routeLength="289.97" waitingTime="0.00" waitingCount="0" stopTime="0.00" timeLoss="8.73" rerouteNo="1" devices="tripinfo_vehicle_97 routing_vehicle_97 emissions_vehicle_97 battery_vehicle_97" vType="human" speedFactor="0.91" vaporized="">
        <emissions CO_abs="0" CO2_abs="0" HC_abs="0" PMx_abs="0" NOx_abs="0" fuel_abs="0" electricity_abs="94.599327"/>
    </tripinfo>
    <tripinfo id="vehicle_34" depart="5.20" departLane="road2_0" departPos="4.10" departPosLat="0.00" departSpeed="2.03" departDelay="2.80" arrival="38.80" arrivalLane="-road3_0" arrivalPos="19.96" arrivalPosLat="0.00" arrivalSpeed="12.54" duration="33.60" routeLength="289.97" waitingTime="0.00" waitingCount="0" stopTime="0.00" timeLoss="10.88" rerouteNo="1" devices="tripinfo_vehicle_34 routing_vehicle_34 emissions_vehicle_34 battery_vehicle_34" vType="human" speedFactor="0.99" vaporized="">
        <emissions CO_abs="0" CO2_abs="0" HC_abs="0" PMx_abs="0" NOx_abs="0" fuel_abs="0" electricity_abs="97.148947"/>
    </tripinfo>
    <tripinfo id="vehicle_70" depart="6.40" departLane="road3_0" departPos="4.10" departPosLat="0.00" departSpeed="3.13" departDelay="3.97" arrival="39.60" arrivalLane="-road1_0" arrivalPos="19.96" arrivalPosLat="0.00" arrivalSpeed="12.43" duration="33.20" routeLength="206.37" waitingTime="7.20" waitingCount="1" stopTime="0.00" timeLoss="16.83" rerouteNo="1" devices="tripinfo_vehicle_70 routing_vehicle_70 emissions_vehicle_70 battery_vehicle_70" vType="human" speedFactor="1.02" vaporized="">
        <emissions CO_abs="0" CO2_abs="0" HC_abs="0" PMx_abs="0" NOx_abs="0" fuel_abs="0" electricity_abs="81.123705"/>
    </tripinfo>
    <tripinfo id="vehicle_66" depart="24.40" departLane="road3_0" departPos="4.10" departPosLat="0.00" departSpeed="2.59" departDelay="18.12" arrival="41.60" arrivalLane="-road2_0" arrivalPos="19.96" arrivalPosLat="0.00" arrivalSpeed="10.96" duration="17.20" routeLength="122.77" waitingTime="0.00" waitingCount="0" stopTime="0.00" timeLoss="5.86" rerouteNo="1" devices="tripinfo_vehicle_66 routing_vehicle_66 emissions_vehicle_66 battery_vehicle_66" vType="human" speedFactor="0.91" vaporized="">
        <emissions CO_abs="0" CO2_abs="0" HC_abs="0" PMx_abs="0" NOx_abs="0" fuel_abs="0" electricity_abs="51.491867"/>
    </tripinfo>
    <tripinfo id="vehicle_44" depart="23.60" departLane="road1_0" departPos="4.10" departPosLat="0.00" departSpeed="2.44" departDelay="14.77" arrival="42.00" arrivalLane="-road0_0" arrivalPos="19.96" arrivalPosLat="0.00" arrivalSpeed="13.24" duration="18.40" routeLength="122.77" waitingTime="0.00" waitingCount="0" stopTime="0.00" timeLoss="8.12" rerouteNo="1" devices="tripinfo_vehicle_44 routing_vehicle_44 emissions_vehicle_44 battery_vehicle_44" vType="human" speedFactor="1.04" vaporized="">
        <emissions CO_abs="0" CO2_abs="0" HC_abs="0" PMx_abs="0" NOx_abs="0" fuel_abs="0" electricity_abs="64.008280"/>
    </tripinfo>
    <tripinfo id="vehicle_11" depart="9.20" departLane="road1_0" departPos="4.10" departPosLat="0.00" departSpeed="3.32" departDelay="6.17" arrival="42.40" arrivalLane="-road3_0" arrivalPos="19.96" arrivalPosLat="0.00" arrivalSpeed="12.96" duration="33.20" routeLength="206.37" waitingTime="4.00" waitingCount="1" stopTime="0.00" timeLoss="16.84" rerouteNo="1" devices="tripinfo_vehicle_11 routing_vehicle_11 emissions_vehicle_11 battery_vehicle_11" vType="human" speedFactor="1.03" vaporized="">
        <emissions CO_abs="0" CO2_abs="0" HC_abs="0" PMx_abs="0" NOx_abs="0" fuel_abs="0" electricity_abs="81.061683"/>
    </tripinfo>
    <tripinfo id="vehicle_118" depart="26.80" departLane="road3_0" departPos="4.10" departPosLat="0.00" departSpeed="2.91" departDelay="18.88" arrival="44.00" arrivalLane="-road2_0" arrivalPos="19.96" arrivalPosLat="0.00" arrivalSpeed="12.63" duration="17.20" routeLength="122.77" waitingTime="0.00" waitingCount="0" stopTime="0.00" timeLoss="6.59" rerouteNo="1" devices="tripinfo_vehicle_118 routing_vehicle_118 emissions_vehicle_118 battery_vehicle_118" vType="human" speedFactor="0.99" vaporized="">
        <emissions CO_abs="0" CO2_abs="0" HC_abs="0" PMx_abs="0" NOx_abs="0" fuel_abs="0" electricity_abs="61.182647"/>
    </tripinfo>
    <tripinfo id="vehicle_26" depart="10.80" departLane="road3_0" departPos="4.10" departPosLat="0.00" departSpeed="1.47" departDelay="5.97" arrival="44.80" arrivalLane="-road1_0" arrivalPos="19.96" arrivalPosLat="0.00" arrivalSpeed="11.03" duration="34.00" routeLength="206.37" waitingTime="5.20" waitingCount="1" stopTime="0.00" timeLoss="16.43" rerouteNo="1" devices="tripinfo_vehicle_26 routing_vehicle_26 emissions_vehicle_26 battery_vehicle_26" vType="human" speedFactor="0.92" vaporized="">
        <emissions CO_abs="0" CO2_abs="0" HC_abs="0" PMx_abs="0" NOx_abs="0" fuel_abs="0" electricity_abs="68.685967"/>
    </tripinfo>
    <tripinfo id="vehicle_109" depart="27.60" departLane="road1_0" departPos="4.10" departPosLat="0.00" departSpeed="2.71" departDelay="17.64" arrival="45.20" arrivalLane="-road0_0" arrivalPos="19.96" arrivalPosLat="0.00" arrivalSpeed="12.84" duration="17.60" routeLength="122.77" waitingTime="0.00" waitingCount="0" stopTime="0.00" timeLoss="6.86" rerouteNo="1" devices="tripinfo_vehicle_109 routing_vehicle_109 emissions_vehicle_109 battery_vehicle_109" vType="human" speedFactor="0.96" vaporized="">
        <emissions CO_abs="0" CO2_abs="0" HC_abs="0" PMx_abs="0" NOx_abs="0" fuel_abs="0" electricity_abs="61.431043"/>
    </tripinfo>
    <tripinfo id="vehicle_21" depart="11.20" departLane="road1_0" departPos="4.10" departPosLat="0.00" departSpeed="1.07" departDelay="5.07" arrival="47.60" arrivalLane="-road3_0" arrivalPos="19.96" arrivalPosLat="0.00" arrivalSpeed="11.95" duration="36.40" routeLength="206.37" waitingTime="3.20" waitingCount="1" stopTime="0.00" timeLoss="20.17" rerouteNo="1" devices="tripinfo_vehicle_21 routing_vehicle_21 emissions_vehicle_21 battery_vehicle_21" vType="human" speedFactor="1.01" vaporized="">
        <emissions CO_abs="0" CO2_abs="0" HC_abs="0" PMx_abs="0" NOx_abs="0" fuel_abs="0" electricity_abs="73.887291"/>
    </tripinfo>
    <tripinfo id="vehicle_32" depart="33.20" departLane="road3_0" departPos="4.10" departPosLat="0.00" departSpeed="2.67" departDelay="23.60" arrival="49.60" arrivalLane="-road2_0" arrivalPos="19.96" arrivalPosLat="0.00" arrivalSpeed="11.91" duration="16.40" routeLength="122.77" waitingTime="0.00" waitingCount="0" stopTime="0.00" timeLoss="5.95" rerouteNo="1" devices="tripinfo_vehicle_32 routing_vehicle_32 emissions_vehicle_32 battery_vehicle_32" vType="human" speedFactor="1.01" vaporized="">
        <emissions CO_abs="0" CO2_abs="0" HC_abs="0" PMx_abs="0" NOx_abs="0" fuel_abs="0" electricity_abs="57.691795"/>
    </tripinfo>
    <tripinfo id="vehicle_91" depart="32.00" departLane="road1_0" departPos="4.10" departPosLat="0.00" departSpeed="3.25" departDelay="20.74" arrival="50.00" arrivalLane="-road0_0" arrivalPos="19.96" arrivalPosLat="0.00" arrivalSpeed="11.11" duration="18.00" routeLength="122.77" waitingTime="0.00" waitingCount="0" stopTime="0.00" timeLoss="6.42" rerouteNo="1" devices="tripinfo_vehicle_91 routing_vehicle_91 emissions_vehicle_91 battery_vehicle_91" vType="human" speedFactor="0.89" vaporized="">
        <emissions CO_abs="0" CO2_abs="0" HC_abs="0" PMx_abs="0" NOx_abs="0" fuel_abs="0" electricity_abs="48.347791"/>
    </tripinfo>
    <tripinfo id="vehicle_6" depart="35.20" departLane="road3_0" departPos="4.10" departPosLat="0.00" departSpeed="2.29" departDelay="24.74" arrival="51.60" arrivalLane="-road2_0" arrivalPos="19.96" arrivalPosLat="0.00" arrivalSpeed="12.39" duration="16.40" routeLength="122.77" waitingTime="0.00" waitingCount="0" stopTime="0.00" timeLoss="6.38" rerouteNo="1" devices="tripinfo_vehicle_6 routing_vehicle_6 emissions_vehicle_6 battery_vehicle_6" vType="human" speedFactor="1.05" vaporized="">
        <emissions CO_abs="0" CO2_abs="0" HC_abs="0" PMx_abs="0" NOx_abs="0" fuel_abs="0" electricity_abs="61.690885"/>
    </tripinfo>
    <tripinfo id="vehicle_84" depart="34.00" departLane="road1_0" departPos="4.10" departPosLat="0.00" departSpeed="3.44" departDelay="20.88" arrival="52.00" arrivalLane="-road0_0" arrivalPos="19.96" arrivalPosLat="0.00" arrivalSpeed="11.98" duration="18.00" routeLength="122.77" waitingTime="0.00" waitingCount="0" stopTime="0.00" timeLoss="7.98" rerouteNo="1" devices="tripinfo_vehicle_84 routing_vehicle_84 emissions_vehicle_84 battery_vehicle_84" vType="human" speedFactor="1.15" vaporized="">
        <emissions CO_abs="0" CO2_abs="0" HC_abs="0" PMx_abs="0" NOx_abs="0" fuel_abs="0" electricity_abs="55.319356"/>
    </tripinfo>
    <tripinfo id="vehicle_95" depart="22.00" departLane="road3_0" departPos="4.10" departPosLat="0.00" departSpeed="1.60" departDelay="16.79" arrival="54.80" arrivalLane="-road0_0" arrivalPos="19.96" arrivalPosLat="0.00" arrivalSpeed="12.90" duration="32.80" routeLength="289.97" waitingTime="0.00" waitingCount="0" stopTime="0.00" timeLoss="10.62" rerouteNo="1" devices="tripinfo_vehicle_95 routing_vehicle_95 emissions_vehicle_95 battery_vehicle_95" vType="human" speedFactor="1.06" vaporized="">
        <emissions CO_abs="0" CO2_abs="0" HC_abs="0" PMx_abs="0" NOx_abs="0" fuel_abs="0" electricity_abs="99.539815"/>
    </tripinfo>
    <tripinfo id="vehicle_83" depart="29.60" departLane="road1_0" departPos="4.10" departPosLat="0.00" departSpeed="2.62" departDelay="19.04" arrival="55.60" arrivalLane="-road3_0" arrivalPos="19.96" arrivalPosLat="0.00" arrivalSpeed="10.79" duration="26.00" routeLength="206.37" waitingTime="0.00" waitingCount="0" stopTime="0.00" timeLoss="9.07" rerouteNo="1" devices="tripinfo_vehicle_83 routing_vehicle_83 emissions_vehicle_83 battery_vehicle_83" vType="human" speedFactor="0.97" vaporized="">
        <emissions CO_abs="0" CO2_abs="0" HC_abs="0" PMx_abs="0" NOx_abs="0" fuel_abs="0" electricity_abs="66.170726"/>
    </tripinfo>
    <tripinfo id="vehicle_42" depart="20.80" departLane="road1_0" departPos="4.10" departPosLat="0.00" departSpeed="0.91" departDelay="13.29" arrival="56.40" arrivalLane="-road2_0" arrivalPos="19.96" arrivalPosLat="0.00" arrivalSpeed="11.50" duration="35.60" routeLength="289.97" waitingTime="0.00" waitingCount="0" stopTime="0.00" timeLoss="13.44" rerouteNo="1" devices="tripinfo_vehicle_42 routing_vehicle_42 emissions_vehicle_42 battery_vehicle_42" vType="human" speedFactor="1.09" vaporized="">
        <emissions CO_abs="0" CO2_abs="0" HC_abs="0" PMx_abs="0" NOx_abs="0" fuel_abs="0" electricity_abs="91.542892"/>
    </tripinfo>
    <tripinfo id="vehicle_99" depart="7.20" departLane="road2_0" departPos="4.10" departPosLat="0.00" departSpeed="3.42" departDelay="2.83" arrival="57.20" arrivalLane="-road1_0" arrivalPos="19.96" arrivalPosLat="0.00" arrivalSpeed="11.69" duration="50.00" routeLength="122.77" waitingTime="31.20" waitingCount="2" stopTime="0.00" timeLoss="40.05" rerouteNo="1" devices="tripinfo_vehicle_99 routing_vehicle_99 emissions_vehicle_99 battery_vehicle_99" vType="human" speedFactor="1.10" vaporized="">
        <emissions CO_abs="0" CO2_abs="0" HC_abs="0" PMx_abs="0" NOx_abs="0" fuel_abs="0" electricity_abs="60.083552"/>
    </tripinfo>
    <tripinfo id="vehicle_3" depart="37.60" departLane="road3_0" departPos="4.10" departPosLat="0.00" departSpeed="2.81" departDelay="26.13" arrival="61.20" arrivalLane="-road1_0" arrivalPos="19.96" arrivalPosLat="0.00" arrivalSpeed="12.63" duration="23.60" routeLength="206.37" waitingTime="0.00" waitingCount="0" stopTime="0.00" timeLoss="7.45" rerouteNo="1" devices="tripinfo_vehicle_3 routing_vehicle_3 emissions_vehicle_3 battery_vehicle_3" vType="human" speedFactor="1.08" vaporized="">
        <emissions CO_abs="0" CO2_abs="0" HC_abs="0" PMx_abs="0" NOx_abs="0" fuel_abs="0" electricity_abs="83.227863"/>
    </tripinfo>
    <tripinfo id="vehicle_14" depart="25.60" departLane="road1_0" departPos="4.10" departPosLat="0.00" departSpeed="0.45" departDelay="16.29" arrival="61.20" arrivalLane="-road2_0" arrivalPos="19.96" arrivalPosLat="0.00" arrivalSpeed="12.40" duration="35.60" routeLength="289.97" waitingTime="0.00" waitingCount="0" stopTime="0.00" timeLoss="12.96" rerouteNo="1" devices="tripinfo_vehicle_14 routing_vehicle_14 emissions_vehicle_14 battery_vehicle_14" vType="human" speedFactor="0.99" vaporized="">
        <emissions CO_abs="0" CO2_abs="0" HC_abs="0" PMx_abs="0" NOx_abs="0" fuel_abs="0" electricity_abs="94.517729"/>
    </tripinfo>
    <tripinfo id="vehicle_79" depart="28.80" departLane="road3_0" departPos="4.10" departPosLat="0.00" departSpeed="2.45" departDelay="20.47" arrival="61.20" arrivalLane="-road0_0" arrivalPos="19.96" arrivalPosLat="0.00" arrivalSpeed="12.49" duration="32.40" routeLength="289.97" waitingTime="0.00" waitingCount="0" stopTime="0.00" timeLoss="10.06" rerouteNo="1" devices="tripinfo_vehicle_79 routing_vehicle_79 emissions_vehicle_79 battery_vehicle_79" vType="human" speedFactor="1.09" vaporized="">
        <emissions CO_abs="0" CO2_abs="0" HC_abs="0" PMx_abs="0" NOx_abs="0" fuel_abs="0" electricity_abs="98.959549"/>
    </tripinfo>
    <tripinfo id="vehicle_50" depart="41.60" departLane="road3_0" departPos="4.10" departPosLat="0.00" departSpeed="2.31" departDelay="27.45" arrival="64.00" arrivalLane="-road2_0" arrivalPos="19.96" arrivalPosLat="0.00" arrivalSpeed="11.57" duration="22.40" routeLength="122.77" waitingTime="0.00" waitingCount="0" stopTime="0.00" timeLoss="10.08" rerouteNo="1" devices="tripinfo_vehicle_50 routing_vehicle_50 emissions_vehicle_50 battery_vehicle_50" vType="human" speedFactor="0.85" vaporized="">
        <emissions CO_abs="0" CO2_abs="0" HC_abs="0" PMx_abs="0" NOx_abs="0" fuel_abs="0" electricity_abs="50.298620"/>
    </tripinfo>
    <tripinfo id="vehicle_103" depart="48.00" departLane="road0_0" departPos="4.10" departPosLat="0.00" departSpeed="1.06" departDelay="41.49" arrival="64.80" arrivalLane="-road3_0" arrivalPos="19.96" arrivalPosLat="0.00" arrivalSpeed="12.12" duration="16.80" routeLength="122.77" waitingTime="0.00" waitingCount="0" stopTime="0.00" timeLoss="5.80" rerouteNo="0" devices="tripinfo_vehicle_103 emissions_vehicle_103 battery_vehicle_103" vType="human" speedFactor="0.95" vaporized="">
        <emissions CO_abs="0" CO2_abs="0" HC_abs="0" PMx_abs="0" NOx_abs="0" fuel_abs="0" electricity_abs="61.556406"/>
    </tripinfo>
    <tripinfo id="vehicle_56" depart="31.20" departLane="road3_0" departPos="4.10" departPosLat="0.00" departSpeed="2.85" departDelay="21.95" arrival="65.60" arrivalLane="-road0_0" arrivalPos="19.96" arrivalPosLat="0.00" arrivalSpeed="12.58" duration="34.40" routeLength="289.97" waitingTime="0.00" waitingCount="0" stopTime="0.00" timeLoss="9.54" rerouteNo="1" devices="tripinfo_vehicle_56 routing_vehicle_56 emissions_vehicle_56 battery_vehicle_56" vType="human" speedFactor="0.90" vaporized="">
        <emissions CO_abs="0" CO2_abs="0" HC_abs="0" PMx_abs="0" NOx_abs="0" fuel_abs="0" electricity_abs="92.577809"/>
    </tripinfo>
    <tripinfo id="vehicle_49" depart="43.60" departLane="road3_0" departPos="4.10" departPosLat="0.00" departSpeed="2.05" departDelay="28.81" arrival="66.80" arrivalLane="-road2_0" arrivalPos="19.96" arrivalPosLat="0.00" arrivalSpeed="10.78" duration="23.20" routeLength="122.77" waitingTime="0.00" waitingCount="0" stopTime="0.00" timeLoss="11.01" rerouteNo="1" devices="tripinfo_vehicle_49 routing_vehicle_49 emissions_vehicle_49 battery_vehicle_49" vType="human" speedFactor="0.85" vaporized="">
        <emissions CO_abs="0" CO2_abs="0" HC_abs="0" PMx_abs="0" NOx_abs="0" fuel_abs="0" electricity_abs="44.598850"/>
    </tripinfo>
    <tripinfo id="vehicle_78" depart="38.00" departLane="road1_0" departPos="4.10" departPosLat="0.00" departSpeed="2.39" departDelay="21.34" arrival="67.20" arrivalLane="-road3_0" arrivalPos="19.96" arrivalPosLat="0.00" arrivalSpeed="12.18" duration="29.20" routeLength="206.37" waitingTime="2.00" waitingCount="1" stopTime="0.00" timeLoss="12.74" rerouteNo="1" devices="tripinfo_vehicle_78 routing_vehicle_78 emissions_vehicle_78 battery_vehicle_78" vType="human" speedFactor="1.01" vaporized="">
        <emissions CO_abs="0" CO2_abs="0" HC_abs="0" PMx_abs="0" NOx_abs="0" fuel_abs="0" electricity_abs="79.297367"/>
    </tripinfo>
    <tripinfo id="vehicle_25" depart="39.60" departLane="road3_0" departPos="4.10" departPosLat="0.00" departSpeed="2.11" departDelay="25.42" arrival="67.60" arrivalLane="-road1_0" arrivalPos="19.96" arrivalPosLat="0.00" arrivalSpeed="12.14" duration="28.00" routeLength="206.37" waitingTime="0.00" waitingCount="0" stopTime="0.00" timeLoss="9.10" rerouteNo="1" devices="tripinfo_vehicle_25 routing_vehicle_25 emissions_vehicle_25 battery_vehicle_25" vType="human" speedFactor="0.87" vaporized="">
        <emissions CO_abs="0" CO2_abs="0" HC_abs="0" PMx_abs="0" NOx_abs="0" fuel_abs="0" electricity_abs="70.993594"/>
    </tripinfo>
    <tripinfo id="vehicle_106" depart="53.60" departLane="road1_0" departPos="4.10" departPosLat="0.00" departSpeed="2.02" departDelay="33.86" arrival="70.80" arrivalLane="-road0_0" arrivalPos="19.96" arrivalPosLat="0.00" arrivalSpeed="11.38" duration="17.20" routeLength="122.77" waitingTime="0.00" waitingCount="0" stopTime="0.00" timeLoss="6.84" rerouteNo="1" devices="tripinfo_vehicle_106 routing_vehicle_106 emissions_vehicle_106 battery_vehicle_106" vType="human" speedFactor="1.01" vaporized="">
        <emissions CO_abs="0" CO2_abs="0" HC_abs="0" PMx_abs="0" NOx_abs="0" fuel_abs="0" electricity_abs="54.024826"/>
    </tripinfo>
    <tripinfo id="vehicle_60" depart="36.00" departLane="road1_0" departPos="4.10" departPosLat="0.00" departSpeed="2.92" departDelay="22.73" arrival="71.60" arrivalLane="-road2_0" arrivalPos="19.96" arrivalPosLat="0.00" arrivalSpeed="12.39" duration="35.60" routeLength="289.97" waitingTime="3.60" waitingCount="1" stopTime="0.00" timeLoss="13.26" rerouteNo="1" devices="tripinfo_vehicle_60 routing_vehicle_60 emissions_vehicle_60 battery_vehicle_60" vType="human" speedFactor="1.08" vaporized="">
        <emissions CO_abs="0" CO2_abs="0" HC_abs="0" PMx_abs="0" NOx_abs="0" fuel_abs="0" electricity_abs="99.794548"/>
    </tripinfo>
    <tripinfo id="vehicle_61" depart="9.20" departLane="road0_0" departPos="4.10" departPosLat="0.00" departSpeed="1.97" departDelay="4.86" arrival="73.20" arrivalLane="-road1_0" arrivalPos="19.96" arrivalPosLat="0.00" arrivalSpeed="12.12" duration="64.00" routeLength="289.97" waitingTime="30.40" waitingCount="1" stopTime="0.00" timeLoss="41.96" rerouteNo="0" devices="tripinfo_vehicle_61 emissions_vehicle_61 battery_vehicle_61" vType="human" speedFactor="1.12" vaporized="">
        <emissions CO_abs="0" CO2_abs="0" HC_abs="0" PMx_abs="0" NOx_abs="0" fuel_abs="0" electricity_abs="101.599677"/>
    </tripinfo>
    <tripinfo id="vehicle_23" depart="56.00" departLane="road1_0" departPos="4.10" departPosLat="0.00" departSpeed="3.32" departDelay="35.69" arrival="74.00" arrivalLane="-road0_0" arrivalPos="19.96" arrivalPosLat="0.00" arrivalSpeed="11.18" duration="18.00" routeLength="122.77" waitingTime="0.00" waitingCount="0" stopTime="0.00" timeLoss="6.44" rerouteNo="1" devices="tripinfo_vehicle_23 routing_vehicle_23 emissions_vehicle_23 battery_vehicle_23" vType="human" speedFactor="0.89" vaporized="">