<?xml version="1.0" encoding="UTF-8"?>

<!-- generated on 2025-05-29 08:50:25 by Eclipse SUMO sumo Version v1_20_0+0085-e155ab8699b
<configuration xmlns:xsi="http://www.w3.org/2001/XMLSchema-instance" xsi:noNamespaceSchemaLocation="http://sumo.dlr.de/xsd/sumoConfiguration.xsd">

    <input>
        <net-file value="../networks/roundabout.net.xml"/>
        <route-files value="../networks/routes1.rou.xml"/>
    </input>

    <output>
        <output-prefix value="37-"/>
        <battery-output.precision value="4"/>
        <tripinfo-output value="../networks/output_data/output_kan/tripinfo/tripinfo-output.xml"/>
        <collision-output value="../networks/output_data/output_kan/collision/collision-output.xml"/>
    </output>

    <time>
        <begin value="0"/>
        <step-length value="0.4"/>
    </time>

    <processing>
        <step-method.ballistic value="true"/>
        <lateral-resolution value="3.2"/>
        <collision.action value="warn"/>
        <collision.mingap-factor value="0"/>
        <time-to-teleport value="-1"/>
        <random-depart-offset value="5"/>
    </processing>

    <report>
        <no-warnings value="True"/>
        <no-step-log value="True"/>
    </report>

    <emissions>
        <device.emissions.probability value="1"/>
    </emissions>

    <battery>
        <device.battery.probability value="1"/>
    </battery>

    <traci_server>
        <remote-port value="41215"/>
    </traci_server>

    <gui_only>
        <quit-on-end value="True"/>
        <start value="True"/>
    </gui_only>

</configuration>
-->

<tripinfos xmlns:xsi="http://www.w3.org/2001/XMLSchema-instance" xsi:noNamespaceSchemaLocation="http://sumo.dlr.de/xsd/tripinfo_file.xsd">
    <tripinfo id="vehicle_6" depart="1.20" departLane="road1_0" departPos="4.10" departPosLat="0.00" departSpeed="5.28" departDelay="0.69" arrival="17.20" arrivalLane="-road0_0" arrivalPos="19.96" arrivalPosLat="0.00" arrivalSpeed="11.79" duration="16.00" routeLength="122.77" waitingTime="0.00" waitingCount="0" stopTime="0.00" timeLoss="5.70" rerouteNo="1" devices="tripinfo_vehicle_6 routing_vehicle_6 emissions_vehicle_6 battery_vehicle_6" vType="human" speedFactor="1.05" vaporized="">
        <emissions CO_abs="0" CO2_abs="0" HC_abs="0" PMx_abs="0" NOx_abs="0" fuel_abs="0" electricity_abs="52.996981"/>
    </tripinfo>
    <tripinfo id="vehicle_96" depart="2.40" departLane="road3_0" departPos="4.10" departPosLat="0.00" departSpeed="5.29" departDelay="0.04" arrival="17.20" arrivalLane="-road2_0" arrivalPos="19.96" arrivalPosLat="0.00" arrivalSpeed="12.68" duration="14.80" routeLength="122.77" waitingTime="0.00" waitingCount="0" stopTime="0.00" timeLoss="4.48" rerouteNo="1" devices="tripinfo_vehicle_96 routing_vehicle_96 emissions_vehicle_96 battery_vehicle_96" vType="human" speedFactor="1.01" vaporized="">
        <emissions CO_abs="0" CO2_abs="0" HC_abs="0" PMx_abs="0" NOx_abs="0" fuel_abs="0" electricity_abs="58.603948"/>
    </tripinfo>
    <tripinfo id="vehicle_42" depart="4.00" departLane="road0_0" departPos="4.10" departPosLat="0.00" departSpeed="3.56" departDelay="1.17" arrival="19.60" arrivalLane="-road3_0" arrivalPos="19.96" arrivalPosLat="0.00" arrivalSpeed="11.33" duration="15.60" routeLength="122.77" waitingTime="0.00" waitingCount="0" stopTime="0.00" timeLoss="5.31" rerouteNo="0" devices="tripinfo_vehicle_42 emissions_vehicle_42 battery_vehicle_42" vType="human" speedFactor="1.09" vaporized="">
        <emissions CO_abs="0" CO2_abs="0" HC_abs="0" PMx_abs="0" NOx_abs="0" fuel_abs="0" electricity_abs="54.828120"/>
    </tripinfo>
    <tripinfo id="vehicle_38" depart="2.80" departLane="road1_0" departPos="4.10" departPosLat="0.00" departSpeed="1.27" departDelay="1.63" arrival="20.00" arrivalLane="-road0_0" arrivalPos="19.96" arrivalPosLat="0.00" arrivalSpeed="12.69" duration="17.20" routeLength="122.77" waitingTime="0.00" waitingCount="0" stopTime="0.00" timeLoss="6.89" rerouteNo="1" devices="tripinfo_vehicle_38 routing_vehicle_38 emissions_vehicle_38 battery_vehicle_38" vType="human" speedFactor="1.10" vaporized="">
        <emissions CO_abs="0" CO2_abs="0" HC_abs="0" PMx_abs="0" NOx_abs="0" fuel_abs="0" electricity_abs="64.846462"/>
    </tripinfo>
    <tripinfo id="vehicle_3" depart="1.60" departLane="road0_0" departPos="4.10" departPosLat="0.00" departSpeed="9.75" departDelay="0.26" arrival="22.00" arrivalLane="-road2_0" arrivalPos="19.96" arrivalPosLat="0.00" arrivalSpeed="12.26" duration="20.40" routeLength="206.37" waitingTime="0.00" waitingCount="0" stopTime="0.00" timeLoss="4.08" rerouteNo="0" devices="tripinfo_vehicle_3 emissions_vehicle_3 battery_vehicle_3" vType="human" speedFactor="1.08" vaporized="">
        <emissions CO_abs="0" CO2_abs="0" HC_abs="0" PMx_abs="0" NOx_abs="0" fuel_abs="0" electricity_abs="62.707218"/>
    </tripinfo>
    <tripinfo id="vehicle_53" depart="2.40" departLane="road2_0" departPos="4.10" departPosLat="0.00" departSpeed="9.43" departDelay="0.08" arrival="22.80" arrivalLane="-road0_0" arrivalPos="19.96" arrivalPosLat="0.00" arrivalSpeed="11.96" duration="20.40" routeLength="206.37" waitingTime="0.00" waitingCount="0" stopTime="0.00" timeLoss="4.29" rerouteNo="1" devices="tripinfo_vehicle_53 routing_vehicle_53 emissions_vehicle_53 battery_vehicle_53" vType="human" speedFactor="1.10" vaporized="">
        <emissions CO_abs="0" CO2_abs="0" HC_abs="0" PMx_abs="0" NOx_abs="0" fuel_abs="0" electricity_abs="60.405288"/>
    </tripinfo>
    <tripinfo id="vehicle_86" depart="2.80" departLane="road0_0" departPos="4.10" departPosLat="0.00" departSpeed="5.40" departDelay="0.21" arrival="24.80" arrivalLane="-road2_0" arrivalPos="19.96" arrivalPosLat="0.00" arrivalSpeed="11.88" duration="22.00" routeLength="206.37" waitingTime="0.00" waitingCount="0" stopTime="0.00" timeLoss="5.49" rerouteNo="0" devices="tripinfo_vehicle_86 emissions_vehicle_86 battery_vehicle_86" vType="human" speedFactor="1.00" vaporized="">
        <emissions CO_abs="0" CO2_abs="0" HC_abs="0" PMx_abs="0" NOx_abs="0" fuel_abs="0" electricity_abs="73.713757"/>
    </tripinfo>
    <tripinfo id="vehicle_108" depart="3.20" departLane="road2_0" departPos="4.10" departPosLat="0.00" departSpeed="2.82" departDelay="0.13" arrival="26.00" arrivalLane="-road0_0" arrivalPos="19.96" arrivalPosLat="0.00" arrivalSpeed="12.44" duration="22.80" routeLength="206.37" waitingTime="0.00" waitingCount="0" stopTime="0.00" timeLoss="6.15" rerouteNo="1" devices="tripinfo_vehicle_108 routing_vehicle_108 emissions_vehicle_108 battery_vehicle_108" vType="human" speedFactor="1.06" vaporized="">
        <emissions CO_abs="0" CO2_abs="0" HC_abs="0" PMx_abs="0" NOx_abs="0" fuel_abs="0" electricity_abs="81.514200"/>
    </tripinfo>
    <tripinfo id="vehicle_80" depart="4.80" departLane="road2_0" departPos="4.10" departPosLat="0.00" departSpeed="1.67" departDelay="0.45" arrival="28.40" arrivalLane="-road0_0" arrivalPos="19.96" arrivalPosLat="0.00" arrivalSpeed="11.68" duration="23.60" routeLength="206.37" waitingTime="0.00" waitingCount="0" stopTime="0.00" timeLoss="7.12" rerouteNo="1" devices="tripinfo_vehicle_80 routing_vehicle_80 emissions_vehicle_80 battery_vehicle_80" vType="human" speedFactor="1.03" vaporized="">
        <emissions CO_abs="0" CO2_abs="0" HC_abs="0" PMx_abs="0" NOx_abs="0" fuel_abs="0" electricity_abs="76.495132"/>
    </tripinfo>
    <tripinfo id="vehicle_62" depart="6.00" departLane="road0_0" departPos="4.10" departPosLat="0.00" departSpeed="3.51" departDelay="3.12" arrival="28.80" arrivalLane="-road2_0" arrivalPos="19.96" arrivalPosLat="0.00" arrivalSpeed="12.71" duration="22.80" routeLength="206.37" waitingTime="0.00" waitingCount="0" stopTime="0.00" timeLoss="6.24" rerouteNo="0" devices="tripinfo_vehicle_62 emissions_vehicle_62 battery_vehicle_62" vType="human" speedFactor="1.02" vaporized="">
        <emissions CO_abs="0" CO2_abs="0" HC_abs="0" PMx_abs="0" NOx_abs="0" fuel_abs="0" electricity_abs="84.387993"/>
    </tripinfo>
    <tripinfo id="vehicle_13" depart="14.40" departLane="road0_0" departPos="4.10" departPosLat="0.00" departSpeed="3.03" departDelay="8.92" arrival="30.00" arrivalLane="-road3_0" arrivalPos="19.96" arrivalPosLat="0.00" arrivalSpeed="12.75" duration="15.60" routeLength="122.77" waitingTime="0.00" waitingCount="0" stopTime="0.00" timeLoss="5.39" rerouteNo="0" devices="tripinfo_vehicle_13 emissions_vehicle_13 battery_vehicle_13" vType="human" speedFactor="1.12" vaporized="">
        <emissions CO_abs="0" CO2_abs="0" HC_abs="0" PMx_abs="0" NOx_abs="0" fuel_abs="0" electricity_abs="65.646321"/>
    </tripinfo>
    <tripinfo id="vehicle_24" depart="0.40" departLane="road1_0" departPos="4.10" departPosLat="0.00" departSpeed="7.89" departDelay="0.16" arrival="33.20" arrivalLane="-road2_0" arrivalPos="19.96" arrivalPosLat="0.00" arrivalSpeed="11.46" duration="32.80" routeLength="289.97" waitingTime="0.00" waitingCount="0" stopTime="0.00" timeLoss="5.71" rerouteNo="1" devices="tripinfo_vehicle_24 routing_vehicle_24 emissions_vehicle_24 battery_vehicle_24" vType="human" speedFactor="0.83" vaporized="">
        <emissions CO_abs="0" CO2_abs="0" HC_abs="0" PMx_abs="0" NOx_abs="0" fuel_abs="0" electricity_abs="69.185068"/>
    </tripinfo>
    <tripinfo id="vehicle_34" depart="3.60" departLane="road3_0" departPos="4.10" departPosLat="0.00" departSpeed="5.30" departDelay="1.03" arrival="33.60" arrivalLane="-road0_0" arrivalPos="19.96" arrivalPosLat="0.00" arrivalSpeed="11.89" duration="30.00" routeLength="289.97" waitingTime="0.00" waitingCount="0" stopTime="0.00" timeLoss="7.41" rerouteNo="1" devices="tripinfo_vehicle_34 routing_vehicle_34 emissions_vehicle_34 battery_vehicle_34" vType="human" speedFactor="0.99" vaporized="">
        <emissions CO_abs="0" CO2_abs="0" HC_abs="0" PMx_abs="0" NOx_abs="0" fuel_abs="0" electricity_abs="89.877472"/>
    </tripinfo>
    <tripinfo id="vehicle_9" depart="8.80" departLane="road2_0" departPos="4.10" departPosLat="0.00" departSpeed="3.40" departDelay="1.56" arrival="36.00" arrivalLane="-road0_0" arrivalPos="19.96" arrivalPosLat="0.00" arrivalSpeed="10.66" duration="27.20" routeLength="206.37" waitingTime="0.00" waitingCount="0" stopTime="0.00" timeLoss="8.24" rerouteNo="1" devices="tripinfo_vehicle_9 routing_vehicle_9 emissions_vehicle_9 battery_vehicle_9" vType="human" speedFactor="0.86" vaporized="">
        <emissions CO_abs="0" CO2_abs="0" HC_abs="0" PMx_abs="0" NOx_abs="0" fuel_abs="0" electricity_abs="63.586598"/>
    </tripinfo>
    <tripinfo id="vehicle_85" depart="12.40" departLane="road0_0" departPos="4.10" departPosLat="0.00" departSpeed="2.66" departDelay="7.85" arrival="37.20" arrivalLane="-road2_0" arrivalPos="19.96" arrivalPosLat="0.00" arrivalSpeed="12.64" duration="24.80" routeLength="206.37" waitingTime="0.00" waitingCount="0" stopTime="0.00" timeLoss="8.04" rerouteNo="0" devices="tripinfo_vehicle_85 emissions_vehicle_85 battery_vehicle_85" vType="human" speedFactor="0.98" vaporized="">
        <emissions CO_abs="0" CO2_abs="0" HC_abs="0" PMx_abs="0" NOx_abs="0" fuel_abs="0" electricity_abs="79.742437"/>
    </tripinfo>
    <tripinfo id="vehicle_75" depart="23.20" departLane="road2_0" departPos="4.10" departPosLat="0.00" departSpeed="3.19" departDelay="12.73" arrival="39.60" arrivalLane="-road1_0" arrivalPos="19.96" arrivalPosLat="0.00" arrivalSpeed="12.48" duration="16.40" routeLength="122.77" waitingTime="0.00" waitingCount="0" stopTime="0.00" timeLoss="5.77" rerouteNo="1" devices="tripinfo_vehicle_75 routing_vehicle_75 emissions_vehicle_75 battery_vehicle_75" vType="human" speedFactor="0.98" vaporized="">
        <emissions CO_abs="0" CO2_abs="0" HC_abs="0" PMx_abs="0" NOx_abs="0" fuel_abs="0" electricity_abs="61.046565"/>
    </tripinfo>
    <tripinfo id="vehicle_5" depart="7.20" departLane="road2_0" departPos="4.10" departPosLat="0.00" departSpeed="4.18" departDelay="1.53" arrival="41.20" arrivalLane="-road3_0" arrivalPos="19.96" arrivalPosLat="0.00" arrivalSpeed="10.85" duration="34.00" routeLength="289.97" waitingTime="0.00" waitingCount="0" stopTime="0.00" timeLoss="7.22" rerouteNo="1" devices="tripinfo_vehicle_5 routing_vehicle_5 emissions_vehicle_5 battery_vehicle_5" vType="human" speedFactor="0.83" vaporized="">
        <emissions CO_abs="0" CO2_abs="0" HC_abs="0" PMx_abs="0" NOx_abs="0" fuel_abs="0" electricity_abs="76.889855"/>
    </tripinfo>
    <tripinfo id="vehicle_115" depart="13.20" departLane="road2_0" departPos="4.10" departPosLat="0.00" departSpeed="1.18" departDelay="5.24" arrival="41.20" arrivalLane="-road0_0" arrivalPos="19.96" arrivalPosLat="0.00" arrivalSpeed="11.52" duration="28.00" routeLength="206.37" waitingTime="0.00" waitingCount="0" stopTime="0.00" timeLoss="10.11" rerouteNo="1" devices="tripinfo_vehicle_115 routing_vehicle_115 emissions_vehicle_115 battery_vehicle_115" vType="human" speedFactor="0.92" vaporized="">
        <emissions CO_abs="0" CO2_abs="0" HC_abs="0" PMx_abs="0" NOx_abs="0" fuel_abs="0" electricity_abs="70.584561"/>
    </tripinfo>
    <tripinfo id="vehicle_25" depart="16.80" departLane="road0_0" departPos="4.10" departPosLat="0.00" departSpeed="3.89" departDelay="11.31" arrival="41.60" arrivalLane="-road2_0" arrivalPos="19.96" arrivalPosLat="0.00" arrivalSpeed="10.62" duration="24.80" routeLength="206.37" waitingTime="0.00" waitingCount="0" stopTime="0.00" timeLoss="6.00" rerouteNo="0" devices="tripinfo_vehicle_25 emissions_vehicle_25 battery_vehicle_25" vType="human" speedFactor="0.87" vaporized="">
        <emissions CO_abs="0" CO2_abs="0" HC_abs="0" PMx_abs="0" NOx_abs="0" fuel_abs="0" electricity_abs="63.467697"/>
    </tripinfo>
    <tripinfo id="vehicle_54" depart="10.00" departLane="road0_0" departPos="4.10" departPosLat="0.00" departSpeed="1.17" departDelay="5.82" arrival="41.60" arrivalLane="-road1_0" arrivalPos="19.96" arrivalPosLat="0.00" arrivalSpeed="12.28" duration="31.60" routeLength="289.97" waitingTime="0.00" waitingCount="0" stopTime="0.00" timeLoss="9.04" rerouteNo="0" devices="tripinfo_vehicle_54 emissions_vehicle_54 battery_vehicle_54" vType="human" speedFactor="1.00" vaporized="">
        <emissions CO_abs="0" CO2_abs="0" HC_abs="0" PMx_abs="0" NOx_abs="0" fuel_abs="0" electricity_abs="99.520316"/>
    </tripinfo>
    <tripinfo id="vehicle_51" depart="19.20" departLane="road2_0" departPos="4.10" departPosLat="0.00" departSpeed="3.39" departDelay="10.35" arrival="42.80" arrivalLane="-road0_0" arrivalPos="19.96" arrivalPosLat="0.00" arrivalSpeed="12.72" duration="23.60" routeLength="206.37" waitingTime="0.00" waitingCount="0" stopTime="0.00" timeLoss="7.72" rerouteNo="1" devices="tripinfo_vehicle_51 routing_vehicle_51 emissions_vehicle_51 battery_vehicle_51" vType="human" speedFactor="1.17" vaporized="">
        <emissions CO_abs="0" CO2_abs="0" HC_abs="0" PMx_abs="0" NOx_abs="0" fuel_abs="0" electricity_abs="82.085241"/>
    </tripinfo>
    <tripinfo id="vehicle_15" depart="18.40" departLane="road0_0" departPos="4.10" departPosLat="0.00" departSpeed="1.77" departDelay="10.95" arrival="44.00" arrivalLane="-road2_0" arrivalPos="19.96" arrivalPosLat="0.00" arrivalSpeed="12.42" duration="25.60" routeLength="206.37" waitingTime="0.00" waitingCount="0" stopTime="0.00" timeLoss="8.01" rerouteNo="0" devices="tripinfo_vehicle_15 emissions_vehicle_15 battery_vehicle_15" vType="human" speedFactor="0.93" vaporized="">
        <emissions CO_abs="0" CO2_abs="0" HC_abs="0" PMx_abs="0" NOx_abs="0" fuel_abs="0" electricity_abs="78.152860"/>
    </tripinfo>
    <tripinfo id="vehicle_74" depart="25.20" departLane="road0_0" departPos="4.10" departPosLat="0.00" departSpeed="2.56" departDelay="16.36" arrival="44.00" arrivalLane="-road3_0" arrivalPos="19.96" arrivalPosLat="0.00" arrivalSpeed="12.26" duration="18.80" routeLength="122.77" waitingTime="0.00" waitingCount="0" stopTime="0.00" timeLoss="7.70" rerouteNo="0" devices="tripinfo_vehicle_74 emissions_vehicle_74 battery_vehicle_74" vType="human" speedFactor="0.96" vaporized="">
        <emissions CO_abs="0" CO2_abs="0" HC_abs="0" PMx_abs="0" NOx_abs="0" fuel_abs="0" electricity_abs="55.220817"/>
    </tripinfo>
    <tripinfo id="vehicle_8" depart="7.60" departLane="road0_0" departPos="4.10" departPosLat="0.00" departSpeed="1.64" departDelay="4.12" arrival="44.40" arrivalLane="-road1_0" arrivalPos="19.96" arrivalPosLat="0.00" arrivalSpeed="12.08" duration="36.80" routeLength="289.97" waitingTime="0.00" waitingCount="0" stopTime="0.00" timeLoss="12.99" rerouteNo="0" devices="tripinfo_vehicle_8 emissions_vehicle_8 battery_vehicle_8" vType="human" speedFactor="0.94" vaporized="">
        <emissions CO_abs="0" CO2_abs="0" HC_abs="0" PMx_abs="0" NOx_abs="0" fuel_abs="0" electricity_abs="88.970738"/>
    </tripinfo>
    <tripinfo id="vehicle_114" depart="21.20" departLane="road2_0" departPos="4.10" departPosLat="0.00" departSpeed="0.43" departDelay="12.04" arrival="45.60" arrivalLane="-road0_0" arrivalPos="19.96" arrivalPosLat="0.00" arrivalSpeed="12.25" duration="24.40" routeLength="206.37" waitingTime="0.00" waitingCount="0" stopTime="0.00" timeLoss="8.17" rerouteNo="1" devices="tripinfo_vehicle_114 routing_vehicle_114 emissions_vehicle_114 battery_vehicle_114" vType="human" speedFactor="1.10" vaporized="">
        <emissions CO_abs="0" CO2_abs="0" HC_abs="0" PMx_abs="0" NOx_abs="0" fuel_abs="0" electricity_abs="80.446650"/>
    </tripinfo>
    <tripinfo id="vehicle_94" depart="16.40" departLane="road2_0" departPos="4.10" departPosLat="0.00" departSpeed="0.33" departDelay="8.13" arrival="46.40" arrivalLane="-road3_0" arrivalPos="19.96" arrivalPosLat="0.00" arrivalSpeed="12.12" duration="30.00" routeLength="289.97" waitingTime="0.00" waitingCount="0" stopTime="0.00" timeLoss="7.81" rerouteNo="1" devices="tripinfo_vehicle_94 routing_vehicle_94 emissions_vehicle_94 battery_vehicle_94" vType="human" speedFactor="1.09" vaporized="">
        <emissions CO_abs="0" CO2_abs="0" HC_abs="0" PMx_abs="0" NOx_abs="0" fuel_abs="0" electricity_abs="100.907901"/>
    </tripinfo>
    <tripinfo id="vehicle_71" depart="10.80" departLane="road2_0" departPos="4.10" departPosLat="0.00" departSpeed="2.27" departDelay="3.47" arrival="48.80" arrivalLane="-road3_0" arrivalPos="19.96" arrivalPosLat="0.00" arrivalSpeed="11.73" duration="38.00" routeLength="289.97" waitingTime="0.00" waitingCount="0" stopTime="0.00" timeLoss="15.29" rerouteNo="1" devices="tripinfo_vehicle_71 routing_vehicle_71 emissions_vehicle_71 battery_vehicle_71" vType="human" speedFactor="0.97" vaporized="">
        <emissions CO_abs="0" CO2_abs="0" HC_abs="0" PMx_abs="0" NOx_abs="0" fuel_abs="0" electricity_abs="84.082647"/>
    </tripinfo>
    <tripinfo id="vehicle_84" depart="20.80" departLane="road0_0" departPos="4.10" departPosLat="0.00" departSpeed="2.92" departDelay="13.38" arrival="50.00" arrivalLane="-road1_0" arrivalPos="19.96" arrivalPosLat="0.00" arrivalSpeed="12.57" duration="29.20" routeLength="289.97" waitingTime="0.00" waitingCount="0" stopTime="0.00" timeLoss="6.99" rerouteNo="0" devices="tripinfo_vehicle_84 emissions_vehicle_84 battery_vehicle_84" vType="human" speedFactor="1.15" vaporized="">
        <emissions CO_abs="0" CO2_abs="0" HC_abs="0" PMx_abs="0" NOx_abs="0" fuel_abs="0" electricity_abs="104.841759"/>
    </tripinfo>
    <tripinfo id="vehicle_117" depart="7.20" departLane="road3_0" departPos="4.10" departPosLat="0.00" departSpeed="3.14" departDelay="3.25" arrival="50.80" arrivalLane="-road2_0" arrivalPos="19.96" arrivalPosLat="0.00" arrivalSpeed="12.21" duration="43.60" routeLength="122.77" waitingTime="23.20" waitingCount="1" stopTime="0.00" timeLoss="33.42" rerouteNo="1" devices="tripinfo_vehicle_117 routing_vehicle_117 emissions_vehicle_117 battery_vehicle_117" vType="human" speedFactor="1.00" vaporized="">
        <emissions CO_abs="0" CO2_abs="0" HC_abs="0" PMx_abs="0" NOx_abs="0" fuel_abs="0" electricity_abs="59.832733"/>
    </tripinfo>
    <tripinfo id="vehicle_46" depart="10.00" departLane="road1_0" departPos="4.10" departPosLat="0.00" departSpeed="1.41" departDelay="7.46" arrival="51.60" arrivalLane="-road0_0" arrivalPos="19.96" arrivalPosLat="0.00" arrivalSpeed="13.52" duration="41.60" routeLength="122.77" waitingTime="20.40" waitingCount="1" stopTime="0.00" timeLoss="30.87" rerouteNo="1" devices="tripinfo_vehicle_46 routing_vehicle_46 emissions_vehicle_46 battery_vehicle_46" vType="human" speedFactor="1.00" vaporized="">
        <emissions CO_abs="0" CO2_abs="0" HC_abs="0" PMx_abs="0" NOx_abs="0" fuel_abs="0" electricity_abs="70.252410"/>
    </tripinfo>
    <tripinfo id="vehicle_100" depart="9.60" departLane="road3_0" departPos="4.10" departPosLat="0.00" departSpeed="1.48" departDelay="5.53" arrival="53.60" arrivalLane="-road2_0" arrivalPos="19.96" arrivalPosLat="0.00" arrivalSpeed="12.04" duration="44.00" routeLength="122.77" waitingTime="22.40" waitingCount="1" stopTime="0.00" timeLoss="33.71" rerouteNo="1" devices="tripinfo_vehicle_100 routing_vehicle_100 emissions_vehicle_100 battery_vehicle_100" vType="human" speedFactor="1.06" vaporized="">
        <emissions CO_abs="0" CO2_abs="0" HC_abs="0" PMx_abs="0" NOx_abs="0" fuel_abs="0" electricity_abs="60.228498"/>
    </tripinfo>
    <tripinfo id="vehicle_112" depart="36.40" departLane="road1_0" departPos="4.10" departPosLat="0.00" departSpeed="1.23" departDelay="33.02" arrival="53.60" arrivalLane="-road0_0" arrivalPos="19.96" arrivalPosLat="0.00" arrivalSpeed="12.15" duration="17.20" routeLength="122.77" waitingTime="0.00" waitingCount="0" stopTime="0.00" timeLoss="6.80" rerouteNo="1" devices="tripinfo_vehicle_112 routing_vehicle_112 emissions_vehicle_112 battery_vehicle_112" vType="human" speedFactor="1.10" vaporized="">
        <emissions CO_abs="0" CO2_abs="0" HC_abs="0" PMx_abs="0" NOx_abs="0" fuel_abs="0" electricity_abs="60.665974"/>
    </tripinfo>
    <tripinfo id="vehicle_68" depart="22.80" departLane="road0_0" departPos="4.10" departPosLat="0.00" departSpeed="2.02" departDelay="14.98" arrival="54.00" arrivalLane="-road1_0" arrivalPos="19.96" arrivalPosLat="0.00" arrivalSpeed="13.39" duration="31.20" routeLength="289.97" waitingTime="0.00" waitingCount="0" stopTime="0.00" timeLoss="8.84" rerouteNo="0" devices="tripinfo_vehicle_68 emissions_vehicle_68 battery_vehicle_68" vType="human" speedFactor="1.04" vaporized="">
        <emissions CO_abs="0" CO2_abs="0" HC_abs="0" PMx_abs="0" NOx_abs="0" fuel_abs="0" electricity_abs="110.038815"/>
    </tripinfo>
    <tripinfo id="vehicle_95" depart="5.60" departLane="road1_0" departPos="4.10" departPosLat="0.00" departSpeed="2.62" departDelay="4.80" arrival="55.60" arrivalLane="-road3_0" arrivalPos="19.96" arrivalPosLat="0.00" arrivalSpeed="11.77" duration="50.00" routeLength="206.37" waitingTime="22.80" waitingCount="1" stopTime="0.00" timeLoss="33.62" rerouteNo="1" devices="tripinfo_vehicle_95 routing_vehicle_95 emissions_vehicle_95 battery_vehicle_95" vType="human" speedFactor="1.06" vaporized="">
        <emissions CO_abs="0" CO2_abs="0" HC_abs="0" PMx_abs="0" NOx_abs="0" fuel_abs="0" electricity_abs="74.383998"/>
    </tripinfo>
    <tripinfo id="vehicle_22" depart="38.40" departLane="road3_0" departPos="4.10" departPosLat="0.00" departSpeed="1.52" departDelay="30.97" arrival="56.00" arrivalLane="-road2_0" arrivalPos="19.96" arrivalPosLat="0.00" arrivalSpeed="12.35" duration="17.60" routeLength="122.77" waitingTime="0.00" waitingCount="0" stopTime="0.00" timeLoss="7.03" rerouteNo="1" devices="tripinfo_vehicle_22 routing_vehicle_22 emissions_vehicle_22 battery_vehicle_22" vType="human" speedFactor="0.97" vaporized="">
        <emissions CO_abs="0" CO2_abs="0" HC_abs="0" PMx_abs="0" NOx_abs="0" fuel_abs="0" electricity_abs="60.301872"/>
    </tripinfo>
    <tripinfo id="vehicle_90" depart="5.20" departLane="road3_0" departPos="4.10" departPosLat="0.00" departSpeed="2.87" departDelay="2.64" arrival="56.80" arrivalLane="-road1_0" arrivalPos="19.96" arrivalPosLat="0.00" arrivalSpeed="12.41" duration="51.60" routeLength="206.37" waitingTime="24.80" waitingCount="1" stopTime="0.00" timeLoss="35.02" rerouteNo="1" devices="tripinfo_vehicle_90 routing_vehicle_90 emissions_vehicle_90 battery_vehicle_90" vType="human" speedFactor="1.02" vaporized="">
        <emissions CO_abs="0" CO2_abs="0" HC_abs="0" PMx_abs="0" NOx_abs="0" fuel_abs="0" electricity_abs="80.672926"/>
    </tripinfo>
    <tripinfo id="vehicle_98" depart="42.80" departLane="road3_0" departPos="4.10" departPosLat="0.00" departSpeed="2.59" departDelay="33.26" arrival="60.00" arrivalLane="-road2_0" arrivalPos="19.96" arrivalPosLat="0.00" arrivalSpeed="12.38" duration="17.20" routeLength="122.77" waitingTime="0.00" waitingCount="0" stopTime="0.00" timeLoss="7.10" rerouteNo="1" devices="tripinfo_vehicle_98 routing_vehicle_98 emissions_vehicle_98 battery_vehicle_98" vType="human" speedFactor="1.12" vaporized="">
        <emissions CO_abs="0" CO2_abs="0" HC_abs="0" PMx_abs="0" NOx_abs="0" fuel_abs="0" electricity_abs="59.742533"/>
    </tripinfo>
    <tripinfo id="vehicle_16" depart="27.20" departLane="road2_0" departPos="4.10" departPosLat="0.00" departSpeed="3.40" departDelay="15.94" arrival="63.20" arrivalLane="-road1_0" arrivalPos="19.96" arrivalPosLat="0.00" arrivalSpeed="11.22" duration="36.00" routeLength="122.77" waitingTime="15.60" waitingCount="1" stopTime="0.00" timeLoss="24.36" rerouteNo="1" devices="tripinfo_vehicle_16 routing_vehicle_16 emissions_vehicle_16 battery_vehicle_16" vType="human" speedFactor="0.88" vaporized="">
        <emissions CO_abs="0" CO2_abs="0" HC_abs="0" PMx_abs="0" NOx_abs="0" fuel_abs="0" electricity_abs="51.723791"/>
    </tripinfo>
    <tripinfo id="vehicle_52" depart="7.60" departLane="road1_0" departPos="4.10" departPosLat="0.00" departSpeed="2.59" departDelay="5.40" arrival="63.60" arrivalLane="-road2_0" arrivalPos="19.96" arrivalPosLat="0.00" arrivalSpeed="13.30" duration="56.00" routeLength="289.97" waitingTime="20.80" waitingCount="1" stopTime="0.00" timeLoss="33.43" rerouteNo="1" devices="tripinfo_vehicle_52 routing_vehicle_52 emissions_vehicle_52 battery_vehicle_52" vType="human" speedFactor="1.02" vaporized="">
        <emissions CO_abs="0" CO2_abs="0" HC_abs="0" PMx_abs="0" NOx_abs="0" fuel_abs="0" electricity_abs="105.343307"/>
    </tripinfo>
    <tripinfo id="vehicle_26" depart="40.80" departLane="road3_0" departPos="4.10" departPosLat="0.00" departSpeed="3.08" departDelay="31.77" arrival="67.20" arrivalLane="-road1_0" arrivalPos="19.96" arrivalPosLat="0.00" arrivalSpeed="11.58" duration="26.40" routeLength="206.37" waitingTime="0.00" waitingCount="0" stopTime="0.00" timeLoss="8.68" rerouteNo="1" devices="tripinfo_vehicle_26 routing_vehicle_26 emissions_vehicle_26 battery_vehicle_26" vType="human" speedFactor="0.92" vaporized="">
        <emissions CO_abs="0" CO2_abs="0" HC_abs="0" PMx_abs="0" NOx_abs="0" fuel_abs="0" electricity_abs="68.077825"/>
    </tripinfo>
    <tripinfo id="vehicle_30" depart="51.20" departLane="road3_0" departPos="4.10" departPosLat="0.00" departSpeed="2.86" departDelay="38.93" arrival="68.40" arrivalLane="-road2_0" arrivalPos="19.96" arrivalPosLat="0.00" arrivalSpeed="11.91" duration="17.20" routeLength="122.77" waitingTime="0.00" waitingCount="0" stopTime="0.00" timeLoss="7.10" rerouteNo="1" devices="tripinfo_vehicle_30 routing_vehicle_30 emissions_vehicle_30 battery_vehicle_30" vType="human" speedFactor="1.18" vaporized="">
        <emissions CO_abs="0" CO2_abs="0" HC_abs="0" PMx_abs="0" NOx_abs="0" fuel_abs="0" electricity_abs="55.600665"/>
    </tripinfo>
    <tripinfo id="vehicle_93" depart="45.60" departLane="road1_0" departPos="4.10" departPosLat="0.00" departSpeed="3.57" departDelay="40.79" arrival="68.80" arrivalLane="-road3_0" arrivalPos="19.96" arrivalPosLat="0.00" arrivalSpeed="12.18" duration="23.20" routeLength="206.37" waitingTime="0.00" waitingCount="0" stopTime="0.00" timeLoss="5.74" rerouteNo="1" devices="tripinfo_vehicle_93 routing_vehicle_93 emissions_vehicle_93 battery_vehicle_93" vType="human" speedFactor="0.92" vaporized="">
        <emissions CO_abs="0" CO2_abs="0" HC_abs="0" PMx_abs="0" NOx_abs="0" fuel_abs="0" electricity_abs="77.514197"/>
    </tripinfo>
    <tripinfo id="vehicle_59" depart="38.80" departLane="road1_0" departPos="4.10" departPosLat="0.00" departSpeed="1.27" departDelay="34.90" arrival="70.40" arrivalLane="-road2_0" arrivalPos="19.96" arrivalPosLat="0.00" arrivalSpeed="12.05" duration="31.60" routeLength="289.97" waitingTime="0.00" waitingCount="0" stopTime="0.00" timeLoss="8.72" rerouteNo="1" devices="tripinfo_vehicle_59 routing_vehicle_59 emissions_vehicle_59 battery_vehicle_59" vType="human" speedFactor="0.97" vaporized="">
        <emissions CO_abs="0" CO2_abs="0" HC_abs="0" PMx_abs="0" NOx_abs="0" fuel_abs="0" electricity_abs="96.703079"/>
    </tripinfo>
    <tripinfo id="vehicle_33" depart="47.60" departLane="road1_0" departPos="4.10" departPosLat="0.00" departSpeed="2.99" departDelay="42.11" arrival="70.80" arrivalLane="-road3_0" arrivalPos="19.96" arrivalPosLat="0.00" arrivalSpeed="12.60" duration="23.20" routeLength="206.37" waitingTime="0.00" waitingCount="0" stopTime="0.00" timeLoss="7.09" rerouteNo="1" devices="tripinfo_vehicle_33 routing_vehicle_33 emissions_vehicle_33 battery_vehicle_33" vType="human" speedFactor="1.17" vaporized="">
        <emissions CO_abs="0" CO2_abs="0" HC_abs="0" PMx_abs="0" NOx_abs="0" fuel_abs="0" electricity_abs="81.945319"/>
    </tripinfo>
    <tripinfo id="vehicle_81" depart="49.60" departLane="road1_0" departPos="4.10" departPosLat="0.00" departSpeed="1.15" departDelay="42.69" arrival="72.00" arrivalLane="-road0_0" arrivalPos="19.96" arrivalPosLat="0.00" arrivalSpeed="13.88" duration="22.40" routeLength="122.77" waitingTime="2.80" waitingCount="1" stopTime="0.00" timeLoss="11.78" rerouteNo="1" devices="tripinfo_vehicle_81 routing_vehicle_81 emissions_vehicle_81 battery_vehicle_81" vType="human" speedFactor="1.00" vaporized="">
        <emissions CO_abs="0" CO2_abs="0" HC_abs="0" PMx_abs="0" NOx_abs="0" fuel_abs="0" electricity_abs="73.854790"/>
    </tripinfo>