<?xml version="1.0" encoding="UTF-8"?>

<!-- generated on 2025-05-29 08:50:37 by Eclipse SUMO sumo Version v1_20_0+0085-e155ab8699b
<configuration xmlns:xsi="http://www.w3.org/2001/XMLSchema-instance" xsi:noNamespaceSchemaLocation="http://sumo.dlr.de/xsd/sumoConfiguration.xsd">

    <input>
        <net-file value="../networks/roundabout.net.xml"/>
        <route-files value="../networks/routes1.rou.xml"/>
    </input>

    <output>
        <output-prefix value="43-"/>
        <battery-output.precision value="4"/>
        <tripinfo-output value="../networks/output_data/output_kan/tripinfo/tripinfo-output.xml"/>
        <collision-output value="../networks/output_data/output_kan/collision/collision-output.xml"/>
    </output>

    <time>
        <begin value="0"/>
        <step-length value="0.4"/>
    </time>

    <processing>
        <step-method.ballistic value="true"/>
        <lateral-resolution value="3.2"/>
        <collision.action value="warn"/>
        <collision.mingap-factor value="0"/>
        <time-to-teleport value="-1"/>
        <random-depart-offset value="5"/>
    </processing>

    <report>
        <no-warnings value="True"/>
        <no-step-log value="True"/>
    </report>

    <emissions>
        <device.emissions.probability value="1"/>
    </emissions>

    <battery>
        <device.battery.probability value="1"/>
    </battery>

    <traci_server>
        <remote-port value="38713"/>
    </traci_server>

    <gui_only>
        <quit-on-end value="True"/>
        <start value="True"/>
    </gui_only>

</configuration>
-->

<tripinfos xmlns:xsi="http://www.w3.org/2001/XMLSchema-instance" xsi:noNamespaceSchemaLocation="http://sumo.dlr.de/xsd/tripinfo_file.xsd">
    <tripinfo id="vehicle_117" depart="1.20" departLane="road2_0" departPos="4.10" departPosLat="0.00" departSpeed="5.40" departDelay="0.41" arrival="16.80" arrivalLane="-road1_0" arrivalPos="19.96" arrivalPosLat="0.00" arrivalSpeed="12.60" duration="15.60" routeLength="122.77" waitingTime="0.00" waitingCount="0" stopTime="0.00" timeLoss="5.21" rerouteNo="1" devices="tripinfo_vehicle_117 routing_vehicle_117 emissions_vehicle_117 battery_vehicle_117" vType="human" speedFactor="1.00" vaporized="">
        <emissions CO_abs="0" CO2_abs="0" HC_abs="0" PMx_abs="0" NOx_abs="0" fuel_abs="0" electricity_abs="58.243787"/>
    </tripinfo>
    <tripinfo id="vehicle_21" depart="2.40" departLane="road1_0" departPos="4.10" departPosLat="0.00" departSpeed="1.16" departDelay="0.34" arrival="17.20" arrivalLane="-road0_0" arrivalPos="19.96" arrivalPosLat="0.00" arrivalSpeed="12.96" duration="14.80" routeLength="122.77" waitingTime="0.00" waitingCount="0" stopTime="0.00" timeLoss="4.62" rerouteNo="1" devices="tripinfo_vehicle_21 routing_vehicle_21 emissions_vehicle_21 battery_vehicle_21" vType="human" speedFactor="1.01" vaporized="">
        <emissions CO_abs="0" CO2_abs="0" HC_abs="0" PMx_abs="0" NOx_abs="0" fuel_abs="0" electricity_abs="69.652748"/>
    </tripinfo>
    <tripinfo id="vehicle_27" depart="2.80" departLane="road3_0" departPos="4.10" departPosLat="0.00" departSpeed="1.60" departDelay="1.56" arrival="20.00" arrivalLane="-road2_0" arrivalPos="19.96" arrivalPosLat="0.00" arrivalSpeed="12.17" duration="17.20" routeLength="122.77" waitingTime="0.00" waitingCount="0" stopTime="0.00" timeLoss="6.17" rerouteNo="1" devices="tripinfo_vehicle_27 routing_vehicle_27 emissions_vehicle_27 battery_vehicle_27" vType="human" speedFactor="0.95" vaporized="">
        <emissions CO_abs="0" CO2_abs="0" HC_abs="0" PMx_abs="0" NOx_abs="0" fuel_abs="0" electricity_abs="61.434039"/>
    </tripinfo>
    <tripinfo id="vehicle_87" depart="0.40" departLane="road2_0" departPos="4.10" departPosLat="0.00" departSpeed="9.75" departDelay="0.07" arrival="21.20" arrivalLane="-road0_0" arrivalPos="19.96" arrivalPosLat="0.00" arrivalSpeed="13.52" duration="20.80" routeLength="206.37" waitingTime="0.00" waitingCount="0" stopTime="0.00" timeLoss="4.32" rerouteNo="1" devices="tripinfo_vehicle_87 routing_vehicle_87 emissions_vehicle_87 battery_vehicle_87" vType="human" speedFactor="1.04" vaporized="">
        <emissions CO_abs="0" CO2_abs="0" HC_abs="0" PMx_abs="0" NOx_abs="0" fuel_abs="0" electricity_abs="70.483045"/>
    </tripinfo>
    <tripinfo id="vehicle_43" depart="0.40" departLane="road0_0" departPos="4.10" departPosLat="0.00" departSpeed="9.75" departDelay="0.00" arrival="22.40" arrivalLane="-road2_0" arrivalPos="19.96" arrivalPosLat="0.00" arrivalSpeed="12.10" duration="22.00" routeLength="206.37" waitingTime="0.00" waitingCount="0" stopTime="0.00" timeLoss="5.45" rerouteNo="0" devices="tripinfo_vehicle_43 emissions_vehicle_43 battery_vehicle_43" vType="human" speedFactor="1.04" vaporized="">
        <emissions CO_abs="0" CO2_abs="0" HC_abs="0" PMx_abs="0" NOx_abs="0" fuel_abs="0" electricity_abs="57.376067"/>
    </tripinfo>
    <tripinfo id="vehicle_46" depart="1.60" departLane="road0_0" departPos="4.10" departPosLat="0.00" departSpeed="5.29" departDelay="0.12" arrival="24.40" arrivalLane="-road2_0" arrivalPos="19.96" arrivalPosLat="0.00" arrivalSpeed="11.86" duration="22.80" routeLength="206.37" waitingTime="0.00" waitingCount="0" stopTime="0.00" timeLoss="6.42" rerouteNo="0" devices="tripinfo_vehicle_46 emissions_vehicle_46 battery_vehicle_46" vType="human" speedFactor="1.00" vaporized="">
        <emissions CO_abs="0" CO2_abs="0" HC_abs="0" PMx_abs="0" NOx_abs="0" fuel_abs="0" electricity_abs="70.263431"/>
    </tripinfo>
    <tripinfo id="vehicle_48" depart="1.20" departLane="road3_0" departPos="4.10" departPosLat="0.00" departSpeed="5.30" departDelay="0.06" arrival="25.60" arrivalLane="-road1_0" arrivalPos="19.96" arrivalPosLat="0.00" arrivalSpeed="11.05" duration="24.40" routeLength="206.37" waitingTime="0.00" waitingCount="0" stopTime="0.00" timeLoss="5.80" rerouteNo="1" devices="tripinfo_vehicle_48 routing_vehicle_48 emissions_vehicle_48 battery_vehicle_48" vType="human" speedFactor="0.88" vaporized="">
        <emissions CO_abs="0" CO2_abs="0" HC_abs="0" PMx_abs="0" NOx_abs="0" fuel_abs="0" electricity_abs="63.707947"/>
    </tripinfo>
    <tripinfo id="vehicle_86" depart="2.40" departLane="road2_0" departPos="4.10" departPosLat="0.00" departSpeed="2.32" departDelay="1.51" arrival="26.40" arrivalLane="-road0_0" arrivalPos="19.96" arrivalPosLat="0.00" arrivalSpeed="12.37" duration="24.00" routeLength="206.37" waitingTime="0.00" waitingCount="0" stopTime="0.00" timeLoss="7.54" rerouteNo="1" devices="tripinfo_vehicle_86 routing_vehicle_86 emissions_vehicle_86 battery_vehicle_86" vType="human" speedFactor="1.00" vaporized="">
        <emissions CO_abs="0" CO2_abs="0" HC_abs="0" PMx_abs="0" NOx_abs="0" fuel_abs="0" electricity_abs="80.270899"/>
    </tripinfo>
    <tripinfo id="vehicle_81" depart="10.80" departLane="road0_0" departPos="4.10" departPosLat="0.00" departSpeed="2.37" departDelay="2.68" arrival="26.80" arrivalLane="-road3_0" arrivalPos="19.96" arrivalPosLat="0.00" arrivalSpeed="11.59" duration="16.00" routeLength="122.77" waitingTime="0.00" waitingCount="0" stopTime="0.00" timeLoss="5.62" rerouteNo="0" devices="tripinfo_vehicle_81 emissions_vehicle_81 battery_vehicle_81" vType="human" speedFactor="1.00" vaporized="">
        <emissions CO_abs="0" CO2_abs="0" HC_abs="0" PMx_abs="0" NOx_abs="0" fuel_abs="0" electricity_abs="58.092620"/>
    </tripinfo>
    <tripinfo id="vehicle_89" depart="2.80" departLane="road0_0" departPos="4.10" departPosLat="0.00" departSpeed="3.49" departDelay="0.43" arrival="26.80" arrivalLane="-road2_0" arrivalPos="19.96" arrivalPosLat="0.00" arrivalSpeed="12.90" duration="24.00" routeLength="206.37" waitingTime="0.00" waitingCount="0" stopTime="0.00" timeLoss="7.60" rerouteNo="0" devices="tripinfo_vehicle_89 emissions_vehicle_89 battery_vehicle_89" vType="human" speedFactor="1.02" vaporized="">
        <emissions CO_abs="0" CO2_abs="0" HC_abs="0" PMx_abs="0" NOx_abs="0" fuel_abs="0" electricity_abs="80.751902"/>
    </tripinfo>
    <tripinfo id="vehicle_35" depart="0.40" departLane="road3_0" departPos="4.10" departPosLat="0.00" departSpeed="9.48" departDelay="0.16" arrival="28.80" arrivalLane="-road0_0" arrivalPos="19.96" arrivalPosLat="0.00" arrivalSpeed="11.32" duration="28.40" routeLength="289.97" waitingTime="0.00" waitingCount="0" stopTime="0.00" timeLoss="5.93" rerouteNo="1" devices="tripinfo_vehicle_35 routing_vehicle_35 emissions_vehicle_35 battery_vehicle_35" vType="human" speedFactor="1.02" vaporized="">
        <emissions CO_abs="0" CO2_abs="0" HC_abs="0" PMx_abs="0" NOx_abs="0" fuel_abs="0" electricity_abs="73.626271"/>
    </tripinfo>
    <tripinfo id="vehicle_52" depart="12.80" departLane="road0_0" departPos="4.10" departPosLat="0.00" departSpeed="2.96" departDelay="4.15" arrival="28.80" arrivalLane="-road3_0" arrivalPos="19.96" arrivalPosLat="0.00" arrivalSpeed="13.66" duration="16.00" routeLength="122.77" waitingTime="0.00" waitingCount="0" stopTime="0.00" timeLoss="5.63" rerouteNo="0" devices="tripinfo_vehicle_52 emissions_vehicle_52 battery_vehicle_52" vType="human" speedFactor="1.02" vaporized="">
        <emissions CO_abs="0" CO2_abs="0" HC_abs="0" PMx_abs="0" NOx_abs="0" fuel_abs="0" electricity_abs="70.962706"/>
    </tripinfo>
    <tripinfo id="vehicle_62" depart="4.80" departLane="road0_0" departPos="4.10" departPosLat="0.00" departSpeed="3.26" departDelay="1.23" arrival="29.20" arrivalLane="-road2_0" arrivalPos="19.96" arrivalPosLat="0.00" arrivalSpeed="11.26" duration="24.40" routeLength="206.37" waitingTime="0.00" waitingCount="0" stopTime="0.00" timeLoss="8.31" rerouteNo="0" devices="tripinfo_vehicle_62 emissions_vehicle_62 battery_vehicle_62" vType="human" speedFactor="1.02" vaporized="">
        <emissions CO_abs="0" CO2_abs="0" HC_abs="0" PMx_abs="0" NOx_abs="0" fuel_abs="0" electricity_abs="68.771948"/>
    </tripinfo>
    <tripinfo id="vehicle_112" depart="14.80" departLane="road0_0" departPos="4.10" departPosLat="0.00" departSpeed="2.19" departDelay="5.88" arrival="31.20" arrivalLane="-road3_0" arrivalPos="19.96" arrivalPosLat="0.00" arrivalSpeed="12.30" duration="16.40" routeLength="122.77" waitingTime="0.00" waitingCount="0" stopTime="0.00" timeLoss="6.29" rerouteNo="0" devices="tripinfo_vehicle_112 emissions_vehicle_112 battery_vehicle_112" vType="human" speedFactor="1.10" vaporized="">
        <emissions CO_abs="0" CO2_abs="0" HC_abs="0" PMx_abs="0" NOx_abs="0" fuel_abs="0" electricity_abs="61.262758"/>
    </tripinfo>
    <tripinfo id="vehicle_24" depart="4.80" departLane="road2_0" departPos="4.10" departPosLat="0.00" departSpeed="3.00" departDelay="3.32" arrival="31.60" arrivalLane="-road0_0" arrivalPos="19.96" arrivalPosLat="0.00" arrivalSpeed="10.78" duration="26.80" routeLength="206.37" waitingTime="0.00" waitingCount="0" stopTime="0.00" timeLoss="7.18" rerouteNo="1" devices="tripinfo_vehicle_24 routing_vehicle_24 emissions_vehicle_24 battery_vehicle_24" vType="human" speedFactor="0.83" vaporized="">
        <emissions CO_abs="0" CO2_abs="0" HC_abs="0" PMx_abs="0" NOx_abs="0" fuel_abs="0" electricity_abs="63.431070"/>
    </tripinfo>
    <tripinfo id="vehicle_109" depart="6.80" departLane="road0_0" departPos="4.10" departPosLat="0.00" departSpeed="2.89" departDelay="1.60" arrival="31.60" arrivalLane="-road2_0" arrivalPos="19.96" arrivalPosLat="0.00" arrivalSpeed="12.41" duration="24.80" routeLength="206.37" waitingTime="0.00" waitingCount="0" stopTime="0.00" timeLoss="7.88" rerouteNo="0" devices="tripinfo_vehicle_109 emissions_vehicle_109 battery_vehicle_109" vType="human" speedFactor="0.96" vaporized="">
        <emissions CO_abs="0" CO2_abs="0" HC_abs="0" PMx_abs="0" NOx_abs="0" fuel_abs="0" electricity_abs="76.959577"/>
    </tripinfo>
    <tripinfo id="vehicle_95" depart="9.20" departLane="road2_0" departPos="4.10" departPosLat="0.00" departSpeed="1.47" departDelay="6.11" arrival="33.60" arrivalLane="-road1_0" arrivalPos="19.96" arrivalPosLat="0.00" arrivalSpeed="12.18" duration="24.40" routeLength="122.77" waitingTime="5.20" waitingCount="1" stopTime="0.00" timeLoss="14.00" rerouteNo="1" devices="tripinfo_vehicle_95 routing_vehicle_95 emissions_vehicle_95 battery_vehicle_95" vType="human" speedFactor="1.06" vaporized="">
        <emissions CO_abs="0" CO2_abs="0" HC_abs="0" PMx_abs="0" NOx_abs="0" fuel_abs="0" electricity_abs="62.776063"/>
    </tripinfo>
    <tripinfo id="vehicle_94" depart="21.60" departLane="road2_0" departPos="4.10" departPosLat="0.00" departSpeed="1.48" departDelay="17.31" arrival="38.00" arrivalLane="-road1_0" arrivalPos="19.96" arrivalPosLat="0.00" arrivalSpeed="12.45" duration="16.40" routeLength="122.77" waitingTime="0.00" waitingCount="0" stopTime="0.00" timeLoss="6.37" rerouteNo="1" devices="tripinfo_vehicle_94 routing_vehicle_94 emissions_vehicle_94 battery_vehicle_94" vType="human" speedFactor="1.09" vaporized="">
        <emissions CO_abs="0" CO2_abs="0" HC_abs="0" PMx_abs="0" NOx_abs="0" fuel_abs="0" electricity_abs="63.348590"/>
    </tripinfo>
    <tripinfo id="vehicle_107" depart="8.80" departLane="road0_0" departPos="4.10" departPosLat="0.00" departSpeed="1.52" departDelay="3.09" arrival="40.40" arrivalLane="-road1_0" arrivalPos="19.96" arrivalPosLat="0.00" arrivalSpeed="12.32" duration="31.60" routeLength="289.97" waitingTime="0.00" waitingCount="0" stopTime="0.00" timeLoss="9.34" rerouteNo="0" devices="tripinfo_vehicle_107 emissions_vehicle_107 battery_vehicle_107" vType="human" speedFactor="1.03" vaporized="">
        <emissions CO_abs="0" CO2_abs="0" HC_abs="0" PMx_abs="0" NOx_abs="0" fuel_abs="0" electricity_abs="98.326763"/>
    </tripinfo>
    <tripinfo id="vehicle_6" depart="17.20" departLane="road0_0" departPos="4.10" departPosLat="0.00" departSpeed="3.69" departDelay="7.62" arrival="40.80" arrivalLane="-road2_0" arrivalPos="19.96" arrivalPosLat="0.00" arrivalSpeed="11.69" duration="23.60" routeLength="206.37" waitingTime="0.00" waitingCount="0" stopTime="0.00" timeLoss="7.25" rerouteNo="0" devices="tripinfo_vehicle_6 emissions_vehicle_6 battery_vehicle_6" vType="human" speedFactor="1.05" vaporized="">
        <emissions CO_abs="0" CO2_abs="0" HC_abs="0" PMx_abs="0" NOx_abs="0" fuel_abs="0" electricity_abs="73.011953"/>
    </tripinfo>
    <tripinfo id="vehicle_67" depart="4.00" departLane="road1_0" departPos="4.10" departPosLat="0.00" departSpeed="4.80" departDelay="1.06" arrival="42.00" arrivalLane="-road3_0" arrivalPos="19.96" arrivalPosLat="0.00" arrivalSpeed="12.04" duration="38.00" routeLength="206.37" waitingTime="9.60" waitingCount="2" stopTime="0.00" timeLoss="20.39" rerouteNo="1" devices="tripinfo_vehicle_67 routing_vehicle_67 emissions_vehicle_67 battery_vehicle_67" vType="human" speedFactor="0.91" vaporized="">
        <emissions CO_abs="0" CO2_abs="0" HC_abs="0" PMx_abs="0" NOx_abs="0" fuel_abs="0" electricity_abs="69.972348"/>
    </tripinfo>
    <tripinfo id="vehicle_119" depart="5.20" departLane="road3_0" departPos="4.10" departPosLat="0.00" departSpeed="3.29" departDelay="2.43" arrival="42.80" arrivalLane="-road1_0" arrivalPos="19.96" arrivalPosLat="0.00" arrivalSpeed="12.87" duration="37.60" routeLength="206.37" waitingTime="8.00" waitingCount="2" stopTime="0.00" timeLoss="21.38" rerouteNo="1" devices="tripinfo_vehicle_119 routing_vehicle_119 emissions_vehicle_119 battery_vehicle_119" vType="human" speedFactor="1.07" vaporized="">
        <emissions CO_abs="0" CO2_abs="0" HC_abs="0" PMx_abs="0" NOx_abs="0" fuel_abs="0" electricity_abs="75.611688"/>
    </tripinfo>
    <tripinfo id="vehicle_72" depart="18.80" departLane="road0_0" departPos="4.10" departPosLat="0.00" departSpeed="2.32" departDelay="6.47" arrival="43.20" arrivalLane="-road2_0" arrivalPos="19.96" arrivalPosLat="0.00" arrivalSpeed="12.03" duration="24.40" routeLength="206.37" waitingTime="0.00" waitingCount="0" stopTime="0.00" timeLoss="7.31" rerouteNo="0" devices="tripinfo_vehicle_72 emissions_vehicle_72 battery_vehicle_72" vType="human" speedFactor="0.94" vaporized="">
        <emissions CO_abs="0" CO2_abs="0" HC_abs="0" PMx_abs="0" NOx_abs="0" fuel_abs="0" electricity_abs="74.604920"/>
    </tripinfo>
    <tripinfo id="vehicle_44" depart="12.00" departLane="road2_0" departPos="4.10" departPosLat="0.00" departSpeed="1.30" departDelay="8.35" arrival="43.60" arrivalLane="-road0_0" arrivalPos="19.96" arrivalPosLat="0.00" arrivalSpeed="12.02" duration="31.60" routeLength="206.37" waitingTime="3.20" waitingCount="1" stopTime="0.00" timeLoss="14.94" rerouteNo="1" devices="tripinfo_vehicle_44 routing_vehicle_44 emissions_vehicle_44 battery_vehicle_44" vType="human" speedFactor="1.04" vaporized="">
        <emissions CO_abs="0" CO2_abs="0" HC_abs="0" PMx_abs="0" NOx_abs="0" fuel_abs="0" electricity_abs="79.786536"/>
    </tripinfo>
    <tripinfo id="vehicle_73" depart="6.80" departLane="road2_0" departPos="4.10" departPosLat="0.00" departSpeed="2.58" departDelay="5.49" arrival="45.20" arrivalLane="-road3_0" arrivalPos="19.96" arrivalPosLat="0.00" arrivalSpeed="13.25" duration="38.40" routeLength="289.97" waitingTime="5.60" waitingCount="1" stopTime="0.00" timeLoss="16.07" rerouteNo="1" devices="tripinfo_vehicle_73 routing_vehicle_73 emissions_vehicle_73 battery_vehicle_73" vType="human" speedFactor="1.06" vaporized="">
        <emissions CO_abs="0" CO2_abs="0" HC_abs="0" PMx_abs="0" NOx_abs="0" fuel_abs="0" electricity_abs="110.116188"/>
    </tripinfo>
    <tripinfo id="vehicle_114" depart="7.20" departLane="road3_0" departPos="4.10" departPosLat="0.00" departSpeed="1.61" departDelay="2.58" arrival="45.20" arrivalLane="-road1_0" arrivalPos="19.96" arrivalPosLat="0.00" arrivalSpeed="11.92" duration="38.00" routeLength="206.37" waitingTime="5.60" waitingCount="1" stopTime="0.00" timeLoss="21.88" rerouteNo="1" devices="tripinfo_vehicle_114 routing_vehicle_114 emissions_vehicle_114 battery_vehicle_114" vType="human" speedFactor="1.10" vaporized="">
        <emissions CO_abs="0" CO2_abs="0" HC_abs="0" PMx_abs="0" NOx_abs="0" fuel_abs="0" electricity_abs="71.305578"/>
    </tripinfo>
    <tripinfo id="vehicle_16" depart="21.20" departLane="road0_0" departPos="4.10" departPosLat="0.00" departSpeed="4.38" departDelay="8.10" arrival="46.40" arrivalLane="-road2_0" arrivalPos="19.96" arrivalPosLat="0.00" arrivalSpeed="10.98" duration="25.20" routeLength="206.37" waitingTime="0.00" waitingCount="0" stopTime="0.00" timeLoss="6.70" rerouteNo="0" devices="tripinfo_vehicle_16 emissions_vehicle_16 battery_vehicle_16" vType="human" speedFactor="0.88" vaporized="">
        <emissions CO_abs="0" CO2_abs="0" HC_abs="0" PMx_abs="0" NOx_abs="0" fuel_abs="0" electricity_abs="61.640034"/>
    </tripinfo>
    <tripinfo id="vehicle_99" depart="21.60" departLane="road3_0" departPos="4.10" departPosLat="0.00" departSpeed="0.43" departDelay="16.02" arrival="47.60" arrivalLane="-road1_0" arrivalPos="19.96" arrivalPosLat="0.00" arrivalSpeed="11.70" duration="26.00" routeLength="206.37" waitingTime="0.00" waitingCount="0" stopTime="0.00" timeLoss="9.87" rerouteNo="1" devices="tripinfo_vehicle_99 routing_vehicle_99 emissions_vehicle_99 battery_vehicle_99" vType="human" speedFactor="1.10" vaporized="">
        <emissions CO_abs="0" CO2_abs="0" HC_abs="0" PMx_abs="0" NOx_abs="0" fuel_abs="0" electricity_abs="71.518891"/>
    </tripinfo>
    <tripinfo id="vehicle_13" depart="10.00" departLane="road3_0" departPos="4.10" departPosLat="0.00" departSpeed="1.17" departDelay="5.12" arrival="50.80" arrivalLane="-road0_0" arrivalPos="19.96" arrivalPosLat="0.00" arrivalSpeed="13.58" duration="40.80" routeLength="289.97" waitingTime="5.60" waitingCount="1" stopTime="0.00" timeLoss="18.41" rerouteNo="1" devices="tripinfo_vehicle_13 routing_vehicle_13 emissions_vehicle_13 battery_vehicle_13" vType="human" speedFactor="1.12" vaporized="">
        <emissions CO_abs="0" CO2_abs="0" HC_abs="0" PMx_abs="0" NOx_abs="0" fuel_abs="0" electricity_abs="111.010228"/>
    </tripinfo>
    <tripinfo id="vehicle_84" depart="5.60" departLane="road1_0" departPos="4.10" departPosLat="0.00" departSpeed="1.43" departDelay="2.07" arrival="50.80" arrivalLane="-road2_0" arrivalPos="19.96" arrivalPosLat="0.00" arrivalSpeed="11.23" duration="45.20" routeLength="289.97" waitingTime="8.00" waitingCount="1" stopTime="0.00" timeLoss="23.02" rerouteNo="1" devices="tripinfo_vehicle_84 routing_vehicle_84 emissions_vehicle_84 battery_vehicle_84" vType="human" speedFactor="1.15" vaporized="">
        <emissions CO_abs="0" CO2_abs="0" HC_abs="0" PMx_abs="0" NOx_abs="0" fuel_abs="0" electricity_abs="93.711982"/>
    </tripinfo>
    <tripinfo id="vehicle_36" depart="8.40" departLane="road1_0" departPos="4.10" departPosLat="0.00" departSpeed="1.22" departDelay="4.26" arrival="53.60" arrivalLane="-road2_0" arrivalPos="19.96" arrivalPosLat="0.00" arrivalSpeed="10.80" duration="45.20" routeLength="289.97" waitingTime="6.80" waitingCount="1" stopTime="0.00" timeLoss="22.44" rerouteNo="1" devices="tripinfo_vehicle_36 routing_vehicle_36 emissions_vehicle_36 battery_vehicle_36" vType="human" speedFactor="0.97" vaporized="">
        <emissions CO_abs="0" CO2_abs="0" HC_abs="0" PMx_abs="0" NOx_abs="0" fuel_abs="0" electricity_abs="85.984093"/>
    </tripinfo>
    <tripinfo id="vehicle_50" depart="24.40" departLane="road1_0" departPos="4.10" departPosLat="0.00" departSpeed="2.54" departDelay="18.53" arrival="54.00" arrivalLane="-road0_0" arrivalPos="19.96" arrivalPosLat="0.00" arrivalSpeed="11.39" duration="29.60" routeLength="122.77" waitingTime="5.20" waitingCount="1" stopTime="0.00" timeLoss="17.23" rerouteNo="1" devices="tripinfo_vehicle_50 routing_vehicle_50 emissions_vehicle_50 battery_vehicle_50" vType="human" speedFactor="0.85" vaporized="">
        <emissions CO_abs="0" CO2_abs="0" HC_abs="0" PMx_abs="0" NOx_abs="0" fuel_abs="0" electricity_abs="50.289297"/>
    </tripinfo>
    <tripinfo id="vehicle_28" depart="38.40" departLane="road0_0" departPos="4.10" departPosLat="0.00" departSpeed="1.12" departDelay="23.07" arrival="54.80" arrivalLane="-road3_0" arrivalPos="19.96" arrivalPosLat="0.00" arrivalSpeed="12.30" duration="16.40" routeLength="122.77" waitingTime="0.00" waitingCount="0" stopTime="0.00" timeLoss="6.26" rerouteNo="0" devices="tripinfo_vehicle_28 emissions_vehicle_28 battery_vehicle_28" vType="human" speedFactor="1.13" vaporized="">
        <emissions CO_abs="0" CO2_abs="0" HC_abs="0" PMx_abs="0" NOx_abs="0" fuel_abs="0" electricity_abs="64.435181"/>
    </tripinfo>
    <tripinfo id="vehicle_71" depart="28.40" departLane="road3_0" departPos="4.10" departPosLat="0.00" departSpeed="2.45" departDelay="17.84" arrival="55.60" arrivalLane="-road2_0" arrivalPos="19.96" arrivalPosLat="0.00" arrivalSpeed="12.30" duration="27.20" routeLength="122.77" waitingTime="2.40" waitingCount="1" stopTime="0.00" timeLoss="16.56" rerouteNo="1" devices="tripinfo_vehicle_71 routing_vehicle_71 emissions_vehicle_71 battery_vehicle_71" vType="human" speedFactor="0.97" vaporized="">
        <emissions CO_abs="0" CO2_abs="0" HC_abs="0" PMx_abs="0" NOx_abs="0" fuel_abs="0" electricity_abs="57.208654"/>
    </tripinfo>
    <tripinfo id="vehicle_32" depart="24.40" departLane="road3_0" departPos="4.10" departPosLat="0.00" departSpeed="3.50" departDelay="16.16" arrival="56.00" arrivalLane="-road1_0" arrivalPos="19.96" arrivalPosLat="0.00" arrivalSpeed="12.21" duration="31.60" routeLength="206.37" waitingTime="4.00" waitingCount="2" stopTime="0.00" timeLoss="15.16" rerouteNo="1" devices="tripinfo_vehicle_32 routing_vehicle_32 emissions_vehicle_32 battery_vehicle_32" vType="human" speedFactor="1.01" vaporized="">
        <emissions CO_abs="0" CO2_abs="0" HC_abs="0" PMx_abs="0" NOx_abs="0" fuel_abs="0" electricity_abs="75.216940"/>
    </tripinfo>
    <tripinfo id="vehicle_113" depart="36.80" departLane="road1_0" departPos="4.10" departPosLat="0.00" departSpeed="1.14" departDelay="30.23" arrival="56.00" arrivalLane="-road0_0" arrivalPos="19.96" arrivalPosLat="0.00" arrivalSpeed="12.98" duration="19.20" routeLength="122.77" waitingTime="0.00" waitingCount="0" stopTime="0.00" timeLoss="8.71" rerouteNo="1" devices="tripinfo_vehicle_113 routing_vehicle_113 emissions_vehicle_113 battery_vehicle_113" vType="human" speedFactor="1.01" vaporized="">
        <emissions CO_abs="0" CO2_abs="0" HC_abs="0" PMx_abs="0" NOx_abs="0" fuel_abs="0" electricity_abs="64.565199"/>
    </tripinfo>
    <tripinfo id="vehicle_74" depart="41.20" departLane="road0_0" departPos="4.10" departPosLat="0.00" departSpeed="3.67" departDelay="25.97" arrival="58.00" arrivalLane="-road3_0" arrivalPos="19.96" arrivalPosLat="0.00" arrivalSpeed="11.12" duration="16.80" routeLength="122.77" waitingTime="0.00" waitingCount="0" stopTime="0.00" timeLoss="5.98" rerouteNo="0" devices="tripinfo_vehicle_74 emissions_vehicle_74 battery_vehicle_74" vType="human" speedFactor="0.96" vaporized="">
        <emissions CO_abs="0" CO2_abs="0" HC_abs="0" PMx_abs="0" NOx_abs="0" fuel_abs="0" electricity_abs="51.253448"/>
    </tripinfo>
    <tripinfo id="vehicle_83" depart="24.00" departLane="road2_0" departPos="4.10" departPosLat="0.00" departSpeed="4.06" departDelay="19.49" arrival="58.80" arrivalLane="-road0_0" arrivalPos="19.96" arrivalPosLat="0.00" arrivalSpeed="11.57" duration="34.80" routeLength="206.37" waitingTime="6.80" waitingCount="1" stopTime="0.00" timeLoss="18.08" rerouteNo="1" devices="tripinfo_vehicle_83 routing_vehicle_83 emissions_vehicle_83 battery_vehicle_83" vType="human" speedFactor="0.97" vaporized="">
        <emissions CO_abs="0" CO2_abs="0" HC_abs="0" PMx_abs="0" NOx_abs="0" fuel_abs="0" electricity_abs="67.545102"/>
    </tripinfo>
    <tripinfo id="vehicle_53" depart="42.80" departLane="road0_0" departPos="4.10" departPosLat="0.00" departSpeed="1.22" departDelay="26.77" arrival="60.00" arrivalLane="-road3_0" arrivalPos="19.96" arrivalPosLat="0.00" arrivalSpeed="12.50" duration="17.20" routeLength="122.77" waitingTime="0.00" waitingCount="0" stopTime="0.00" timeLoss="6.89" rerouteNo="0" devices="tripinfo_vehicle_53 emissions_vehicle_53 battery_vehicle_53" vType="human" speedFactor="1.10" vaporized="">
        <emissions CO_abs="0" CO2_abs="0" HC_abs="0" PMx_abs="0" NOx_abs="0" fuel_abs="0" electricity_abs="63.857390"/>
    </tripinfo>
    <tripinfo id="vehicle_69" depart="22.80" departLane="road0_0" departPos="4.10" departPosLat="0.00" departSpeed="3.93" departDelay="9.01" arrival="60.00" arrivalLane="-road2_0" arrivalPos="19.96" arrivalPosLat="0.00" arrivalSpeed="11.86" duration="37.20" routeLength="206.37" waitingTime="7.60" waitingCount="1" stopTime="0.00" timeLoss="20.96" rerouteNo="0" devices="tripinfo_vehicle_69 emissions_vehicle_69 battery_vehicle_69" vType="human" speedFactor="1.02" vaporized="">
        <emissions CO_abs="0" CO2_abs="0" HC_abs="0" PMx_abs="0" NOx_abs="0" fuel_abs="0" electricity_abs="68.975861"/>
    </tripinfo>
    <tripinfo id="vehicle_78" depart="28.40" departLane="road2_0" departPos="4.10" departPosLat="0.00" departSpeed="0.33" departDelay="22.59" arrival="60.00" arrivalLane="-road1_0" arrivalPos="19.96" arrivalPosLat="0.00" arrivalSpeed="12.11" duration="31.60" routeLength="122.77" waitingTime="9.20" waitingCount="2" stopTime="0.00" timeLoss="21.47" rerouteNo="1" devices="tripinfo_vehicle_78 routing_vehicle_78 emissions_vehicle_78 battery_vehicle_78" vType="human" speedFactor="1.01" vaporized="">
        <emissions CO_abs="0" CO2_abs="0" HC_abs="0" PMx_abs="0" NOx_abs="0" fuel_abs="0" electricity_abs="61.674334"/>
    </tripinfo>
    <tripinfo id="vehicle_30" depart="45.60" departLane="road0_0" departPos="4.10" departPosLat="0.00" departSpeed="3.39" departDelay="28.51" arrival="62.00" arrivalLane="-road3_0" arrivalPos="19.96" arrivalPosLat="0.00" arrivalSpeed="12.15" duration="16.40" routeLength="122.77" waitingTime="0.00" waitingCount="0" stopTime="0.00" timeLoss="6.24" rerouteNo="0" devices="tripinfo_vehicle_30 emissions_vehicle_30 battery_vehicle_30" vType="human" speedFactor="1.18" vaporized="">
        <emissions CO_abs="0" CO2_abs="0" HC_abs="0" PMx_abs="0" NOx_abs="0" fuel_abs="0" electricity_abs="59.308230"/>
    </tripinfo>
    <tripinfo id="vehicle_93" depart="27.20" departLane="road0_0" departPos="4.10" departPosLat="0.00" departSpeed="0.70" departDelay="12.87" arrival="63.20" arrivalLane="-road2_0" arrivalPos="19.96" arrivalPosLat="0.00" arrivalSpeed="11.83" duration="36.00" routeLength="206.37" waitingTime="5.20" waitingCount="1" stopTime="0.00" timeLoss="18.05" rerouteNo="0" devices="tripinfo_vehicle_93 emissions_vehicle_93 battery_vehicle_93" vType="human" speedFactor="0.92" vaporized="">
        <emissions CO_abs="0" CO2_abs="0" HC_abs="0" PMx_abs="0" NOx_abs="0" fuel_abs="0" electricity_abs="71.628815"/>
    </tripinfo>
    <tripinfo id="vehicle_20" depart="24.40" departLane="road0_0" departPos="4.10" departPosLat="0.00" departSpeed="0.94" departDelay="10.24" arrival="64.80" arrivalLane="-road1_0" arrivalPos="19.96" arrivalPosLat="0.00" arrivalSpeed="12.62" duration="40.40" routeLength="289.97" waitingTime="6.40" waitingCount="1" stopTime="0.00" timeLoss="18.10" rerouteNo="0" devices="tripinfo_vehicle_20 emissions_vehicle_20 battery_vehicle_20" vType="human" speedFactor="1.02" vaporized="">
        <emissions CO_abs="0" CO2_abs="0" HC_abs="0" PMx_abs="0" NOx_abs="0" fuel_abs="0" electricity_abs="103.982127"/>
    </tripinfo>
    <tripinfo id="vehicle_11" depart="26.40" departLane="road3_0" departPos="4.10" departPosLat="0.00" departSpeed="3.85" departDelay="16.45" arrival="65.20" arrivalLane="-road0_0" arrivalPos="19.96" arrivalPosLat="0.00" arrivalSpeed="12.42" duration="38.80" routeLength="289.97" waitingTime="2.80" waitingCount="1" stopTime="0.00" timeLoss="16.48" rerouteNo="1" devices="tripinfo_vehicle_11 routing_vehicle_11 emissions_vehicle_11 battery_vehicle_11" vType="human" speedFactor="1.03" vaporized="">
        <emissions CO_abs="0" CO2_abs="0" HC_abs="0" PMx_abs="0" NOx_abs="0" fuel_abs="0" electricity_abs="97.298658"/>
    </tripinfo>