<?xml version="1.0" encoding="UTF-8"?>

<!-- generated on 2025-05-29 08:52:04 by Eclipse SUMO sumo Version v1_20_0+0085-e155ab8699b
<configuration xmlns:xsi="http://www.w3.org/2001/XMLSchema-instance" xsi:noNamespaceSchemaLocation="http://sumo.dlr.de/xsd/sumoConfiguration.xsd">

    <input>
        <net-file value="../networks/roundabout.net.xml"/>
        <route-files value="../networks/routes1.rou.xml"/>
    </input>

    <output>
        <output-prefix value="82-"/>
        <battery-output.precision value="4"/>
        <tripinfo-output value="../networks/output_data/output_kan/tripinfo/tripinfo-output.xml"/>
        <collision-output value="../networks/output_data/output_kan/collision/collision-output.xml"/>
    </output>

    <time>
        <begin value="0"/>
        <step-length value="0.4"/>
    </time>

    <processing>
        <step-method.ballistic value="true"/>
        <lateral-resolution value="3.2"/>
        <collision.action value="warn"/>
        <collision.mingap-factor value="0"/>
        <time-to-teleport value="-1"/>
        <random-depart-offset value="5"/>
    </processing>

    <report>
        <no-warnings value="True"/>
        <no-step-log value="True"/>
    </report>

    <emissions>
        <device.emissions.probability value="1"/>
    </emissions>

    <battery>
        <device.battery.probability value="1"/>
    </battery>

    <traci_server>
        <remote-port value="35973"/>
    </traci_server>

    <gui_only>
        <quit-on-end value="True"/>
        <start value="True"/>
    </gui_only>

</configuration>
-->

<tripinfos xmlns:xsi="http://www.w3.org/2001/XMLSchema-instance" xsi:noNamespaceSchemaLocation="http://sumo.dlr.de/xsd/tripinfo_file.xsd">
    <tripinfo id="vehicle_24" depart="0.40" departLane="road2_0" departPos="4.10" departPosLat="0.00" departSpeed="7.89" departDelay="0.27" arrival="17.20" arrivalLane="-road1_0" arrivalPos="19.96" arrivalPosLat="0.00" arrivalSpeed="11.25" duration="16.80" routeLength="122.77" waitingTime="0.00" waitingCount="0" stopTime="0.00" timeLoss="4.44" rerouteNo="1" devices="tripinfo_vehicle_24 routing_vehicle_24 emissions_vehicle_24 battery_vehicle_24" vType="human" speedFactor="0.83" vaporized="">
        <emissions CO_abs="0" CO2_abs="0" HC_abs="0" PMx_abs="0" NOx_abs="0" fuel_abs="0" electricity_abs="37.126777"/>
    </tripinfo>
    <tripinfo id="vehicle_51" depart="2.80" departLane="road3_0" departPos="4.10" departPosLat="0.00" departSpeed="2.08" departDelay="1.19" arrival="17.60" arrivalLane="-road2_0" arrivalPos="19.96" arrivalPosLat="0.00" arrivalSpeed="13.02" duration="14.80" routeLength="122.77" waitingTime="0.00" waitingCount="0" stopTime="0.00" timeLoss="4.66" rerouteNo="1" devices="tripinfo_vehicle_51 routing_vehicle_51 emissions_vehicle_51 battery_vehicle_51" vType="human" speedFactor="1.17" vaporized="">
        <emissions CO_abs="0" CO2_abs="0" HC_abs="0" PMx_abs="0" NOx_abs="0" fuel_abs="0" electricity_abs="70.786133"/>
    </tripinfo>
    <tripinfo id="vehicle_11" depart="1.20" departLane="road1_0" departPos="4.10" departPosLat="0.00" departSpeed="9.75" departDelay="0.26" arrival="22.40" arrivalLane="-road3_0" arrivalPos="19.96" arrivalPosLat="0.00" arrivalSpeed="10.89" duration="21.20" routeLength="206.37" waitingTime="0.00" waitingCount="0" stopTime="0.00" timeLoss="4.67" rerouteNo="1" devices="tripinfo_vehicle_11 routing_vehicle_11 emissions_vehicle_11 battery_vehicle_11" vType="human" speedFactor="1.03" vaporized="">
        <emissions CO_abs="0" CO2_abs="0" HC_abs="0" PMx_abs="0" NOx_abs="0" fuel_abs="0" electricity_abs="51.536386"/>
    </tripinfo>
    <tripinfo id="vehicle_76" depart="2.00" departLane="road1_0" departPos="4.10" departPosLat="0.00" departSpeed="5.40" departDelay="0.82" arrival="24.80" arrivalLane="-road3_0" arrivalPos="19.96" arrivalPosLat="0.00" arrivalSpeed="12.44" duration="22.80" routeLength="206.37" waitingTime="0.00" waitingCount="0" stopTime="0.00" timeLoss="6.58" rerouteNo="1" devices="tripinfo_vehicle_76 routing_vehicle_76 emissions_vehicle_76 battery_vehicle_76" vType="human" speedFactor="1.03" vaporized="">
        <emissions CO_abs="0" CO2_abs="0" HC_abs="0" PMx_abs="0" NOx_abs="0" fuel_abs="0" electricity_abs="75.753078"/>
    </tripinfo>
    <tripinfo id="vehicle_38" depart="2.40" departLane="road2_0" departPos="4.10" departPosLat="0.00" departSpeed="5.29" departDelay="0.19" arrival="26.80" arrivalLane="-road0_0" arrivalPos="19.96" arrivalPosLat="0.00" arrivalSpeed="13.03" duration="24.40" routeLength="206.37" waitingTime="0.00" waitingCount="0" stopTime="0.00" timeLoss="8.03" rerouteNo="1" devices="tripinfo_vehicle_38 routing_vehicle_38 emissions_vehicle_38 battery_vehicle_38" vType="human" speedFactor="1.10" vaporized="">
        <emissions CO_abs="0" CO2_abs="0" HC_abs="0" PMx_abs="0" NOx_abs="0" fuel_abs="0" electricity_abs="78.529217"/>
    </tripinfo>
    <tripinfo id="vehicle_21" depart="2.00" departLane="road3_0" departPos="4.10" departPosLat="0.00" departSpeed="9.75" departDelay="0.01" arrival="30.00" arrivalLane="-road0_0" arrivalPos="19.96" arrivalPosLat="0.00" arrivalSpeed="13.52" duration="28.00" routeLength="289.97" waitingTime="0.00" waitingCount="0" stopTime="0.00" timeLoss="5.33" rerouteNo="1" devices="tripinfo_vehicle_21 routing_vehicle_21 emissions_vehicle_21 battery_vehicle_21" vType="human" speedFactor="1.01" vaporized="">
        <emissions CO_abs="0" CO2_abs="0" HC_abs="0" PMx_abs="0" NOx_abs="0" fuel_abs="0" electricity_abs="88.783641"/>
    </tripinfo>
    <tripinfo id="vehicle_41" depart="2.00" departLane="road0_0" departPos="4.10" departPosLat="0.00" departSpeed="7.99" departDelay="0.26" arrival="31.20" arrivalLane="-road1_0" arrivalPos="19.96" arrivalPosLat="0.00" arrivalSpeed="11.88" duration="29.20" routeLength="289.97" waitingTime="0.00" waitingCount="0" stopTime="0.00" timeLoss="5.89" rerouteNo="0" devices="tripinfo_vehicle_41 emissions_vehicle_41 battery_vehicle_41" vType="human" speedFactor="0.96" vaporized="">
        <emissions CO_abs="0" CO2_abs="0" HC_abs="0" PMx_abs="0" NOx_abs="0" fuel_abs="0" electricity_abs="81.092136"/>
    </tripinfo>
    <tripinfo id="vehicle_50" depart="6.00" departLane="road1_0" departPos="4.10" departPosLat="0.00" departSpeed="2.63" departDelay="2.99" arrival="31.20" arrivalLane="-road3_0" arrivalPos="19.96" arrivalPosLat="0.00" arrivalSpeed="11.19" duration="25.20" routeLength="206.37" waitingTime="0.00" waitingCount="0" stopTime="0.00" timeLoss="6.06" rerouteNo="1" devices="tripinfo_vehicle_50 routing_vehicle_50 emissions_vehicle_50 battery_vehicle_50" vType="human" speedFactor="0.85" vaporized="">
        <emissions CO_abs="0" CO2_abs="0" HC_abs="0" PMx_abs="0" NOx_abs="0" fuel_abs="0" electricity_abs="67.936345"/>
    </tripinfo>
    <tripinfo id="vehicle_64" depart="2.80" departLane="road0_0" departPos="4.10" departPosLat="0.00" departSpeed="3.60" departDelay="0.75" arrival="33.60" arrivalLane="-road1_0" arrivalPos="19.96" arrivalPosLat="0.00" arrivalSpeed="11.39" duration="30.80" routeLength="289.97" waitingTime="0.00" waitingCount="0" stopTime="0.00" timeLoss="7.04" rerouteNo="0" devices="tripinfo_vehicle_64 emissions_vehicle_64 battery_vehicle_64" vType="human" speedFactor="0.94" vaporized="">
        <emissions CO_abs="0" CO2_abs="0" HC_abs="0" PMx_abs="0" NOx_abs="0" fuel_abs="0" electricity_abs="90.456625"/>
    </tripinfo>
    <tripinfo id="vehicle_20" depart="7.60" departLane="road2_0" departPos="4.10" departPosLat="0.00" departSpeed="1.40" departDelay="2.73" arrival="34.80" arrivalLane="-road0_0" arrivalPos="19.96" arrivalPosLat="0.00" arrivalSpeed="12.01" duration="27.20" routeLength="206.37" waitingTime="0.00" waitingCount="0" stopTime="0.00" timeLoss="10.73" rerouteNo="1" devices="tripinfo_vehicle_20 routing_vehicle_20 emissions_vehicle_20 battery_vehicle_20" vType="human" speedFactor="1.02" vaporized="">
        <emissions CO_abs="0" CO2_abs="0" HC_abs="0" PMx_abs="0" NOx_abs="0" fuel_abs="0" electricity_abs="78.653627"/>
    </tripinfo>
    <tripinfo id="vehicle_67" depart="3.60" departLane="road1_0" departPos="4.10" departPosLat="0.00" departSpeed="1.42" departDelay="0.96" arrival="34.80" arrivalLane="-road2_0" arrivalPos="19.96" arrivalPosLat="0.00" arrivalSpeed="12.33" duration="31.20" routeLength="289.97" waitingTime="0.00" waitingCount="0" stopTime="0.00" timeLoss="6.75" rerouteNo="1" devices="tripinfo_vehicle_67 routing_vehicle_67 emissions_vehicle_67 battery_vehicle_67" vType="human" speedFactor="0.91" vaporized="">
        <emissions CO_abs="0" CO2_abs="0" HC_abs="0" PMx_abs="0" NOx_abs="0" fuel_abs="0" electricity_abs="96.630932"/>
    </tripinfo>
    <tripinfo id="vehicle_16" depart="3.60" departLane="road2_0" departPos="4.10" departPosLat="0.00" departSpeed="4.00" departDelay="0.80" arrival="35.60" arrivalLane="-road3_0" arrivalPos="19.96" arrivalPosLat="0.00" arrivalSpeed="12.25" duration="32.00" routeLength="289.97" waitingTime="0.00" waitingCount="0" stopTime="0.00" timeLoss="6.41" rerouteNo="1" devices="tripinfo_vehicle_16 routing_vehicle_16 emissions_vehicle_16 battery_vehicle_16" vType="human" speedFactor="0.88" vaporized="">
        <emissions CO_abs="0" CO2_abs="0" HC_abs="0" PMx_abs="0" NOx_abs="0" fuel_abs="0" electricity_abs="89.448236"/>
    </tripinfo>
    <tripinfo id="vehicle_52" depart="7.20" departLane="road3_0" departPos="4.10" departPosLat="0.00" departSpeed="0.55" departDelay="0.01" arrival="36.00" arrivalLane="-road1_0" arrivalPos="19.96" arrivalPosLat="0.00" arrivalSpeed="13.03" duration="28.80" routeLength="206.37" waitingTime="3.60" waitingCount="2" stopTime="0.00" timeLoss="12.36" rerouteNo="1" devices="tripinfo_vehicle_52 routing_vehicle_52 emissions_vehicle_52 battery_vehicle_52" vType="human" speedFactor="1.02" vaporized="">
        <emissions CO_abs="0" CO2_abs="0" HC_abs="0" PMx_abs="0" NOx_abs="0" fuel_abs="0" electricity_abs="88.927451"/>
    </tripinfo>
    <tripinfo id="vehicle_54" depart="9.20" departLane="road3_0" departPos="4.10" departPosLat="0.00" departSpeed="4.26" departDelay="2.32" arrival="38.80" arrivalLane="-road1_0" arrivalPos="19.96" arrivalPosLat="0.00" arrivalSpeed="12.97" duration="29.60" routeLength="206.37" waitingTime="2.00" waitingCount="1" stopTime="0.00" timeLoss="13.44" rerouteNo="1" devices="tripinfo_vehicle_54 routing_vehicle_54 emissions_vehicle_54 battery_vehicle_54" vType="human" speedFactor="1.00" vaporized="">
        <emissions CO_abs="0" CO2_abs="0" HC_abs="0" PMx_abs="0" NOx_abs="0" fuel_abs="0" electricity_abs="80.769480"/>
    </tripinfo>
    <tripinfo id="vehicle_115" depart="21.20" departLane="road3_0" departPos="4.10" departPosLat="0.00" departSpeed="2.50" departDelay="12.22" arrival="39.60" arrivalLane="-road2_0" arrivalPos="19.96" arrivalPosLat="0.00" arrivalSpeed="11.54" duration="18.40" routeLength="122.77" waitingTime="0.00" waitingCount="0" stopTime="0.00" timeLoss="7.30" rerouteNo="1" devices="tripinfo_vehicle_115 routing_vehicle_115 emissions_vehicle_115 battery_vehicle_115" vType="human" speedFactor="0.92" vaporized="">
        <emissions CO_abs="0" CO2_abs="0" HC_abs="0" PMx_abs="0" NOx_abs="0" fuel_abs="0" electricity_abs="52.962202"/>
    </tripinfo>
    <tripinfo id="vehicle_118" depart="5.20" departLane="road2_0" departPos="4.10" departPosLat="0.00" departSpeed="1.96" departDelay="1.76" arrival="40.00" arrivalLane="-road3_0" arrivalPos="19.96" arrivalPosLat="0.00" arrivalSpeed="11.94" duration="34.80" routeLength="289.97" waitingTime="0.00" waitingCount="0" stopTime="0.00" timeLoss="12.56" rerouteNo="1" devices="tripinfo_vehicle_118 routing_vehicle_118 emissions_vehicle_118 battery_vehicle_118" vType="human" speedFactor="0.99" vaporized="">
        <emissions CO_abs="0" CO2_abs="0" HC_abs="0" PMx_abs="0" NOx_abs="0" fuel_abs="0" electricity_abs="97.182392"/>
    </tripinfo>
    <tripinfo id="vehicle_84" depart="12.40" departLane="road1_0" departPos="4.10" departPosLat="0.00" departSpeed="1.21" departDelay="6.98" arrival="40.80" arrivalLane="-road0_0" arrivalPos="19.96" arrivalPosLat="0.00" arrivalSpeed="12.10" duration="28.40" routeLength="122.77" waitingTime="7.20" waitingCount="1" stopTime="0.00" timeLoss="18.12" rerouteNo="1" devices="tripinfo_vehicle_84 routing_vehicle_84 emissions_vehicle_84 battery_vehicle_84" vType="human" speedFactor="1.15" vaporized="">
        <emissions CO_abs="0" CO2_abs="0" HC_abs="0" PMx_abs="0" NOx_abs="0" fuel_abs="0" electricity_abs="63.407446"/>
    </tripinfo>
    <tripinfo id="vehicle_105" depart="10.40" departLane="road2_0" departPos="4.10" departPosLat="0.00" departSpeed="1.61" departDelay="5.44" arrival="42.80" arrivalLane="-road3_0" arrivalPos="19.96" arrivalPosLat="0.00" arrivalSpeed="11.62" duration="32.40" routeLength="289.97" waitingTime="0.00" waitingCount="0" stopTime="0.00" timeLoss="10.05" rerouteNo="1" devices="tripinfo_vehicle_105 routing_vehicle_105 emissions_vehicle_105 battery_vehicle_105" vType="human" speedFactor="1.07" vaporized="">
        <emissions CO_abs="0" CO2_abs="0" HC_abs="0" PMx_abs="0" NOx_abs="0" fuel_abs="0" electricity_abs="96.973211"/>
    </tripinfo>
    <tripinfo id="vehicle_0" depart="26.40" departLane="road1_0" departPos="4.10" departPosLat="0.00" departSpeed="0.25" departDelay="19.95" arrival="43.60" arrivalLane="-road0_0" arrivalPos="19.96" arrivalPosLat="0.00" arrivalSpeed="10.95" duration="17.20" routeLength="122.77" waitingTime="0.00" waitingCount="0" stopTime="0.00" timeLoss="7.10" rerouteNo="1" devices="tripinfo_vehicle_0 routing_vehicle_0 emissions_vehicle_0 battery_vehicle_0" vType="human" speedFactor="1.06" vaporized="">
        <emissions CO_abs="0" CO2_abs="0" HC_abs="0" PMx_abs="0" NOx_abs="0" fuel_abs="0" electricity_abs="54.260243"/>
    </tripinfo>
    <tripinfo id="vehicle_102" depart="11.20" departLane="road3_0" departPos="4.10" departPosLat="0.00" departSpeed="1.45" departDelay="3.30" arrival="47.20" arrivalLane="-road0_0" arrivalPos="19.96" arrivalPosLat="0.00" arrivalSpeed="13.12" duration="36.00" routeLength="289.97" waitingTime="1.60" waitingCount="1" stopTime="0.00" timeLoss="12.98" rerouteNo="1" devices="tripinfo_vehicle_102 routing_vehicle_102 emissions_vehicle_102 battery_vehicle_102" vType="human" speedFactor="0.97" vaporized="">
        <emissions CO_abs="0" CO2_abs="0" HC_abs="0" PMx_abs="0" NOx_abs="0" fuel_abs="0" electricity_abs="106.276974"/>
    </tripinfo>
    <tripinfo id="vehicle_62" depart="8.40" departLane="road1_0" departPos="4.10" departPosLat="0.00" departSpeed="3.67" departDelay="4.97" arrival="51.60" arrivalLane="-road2_0" arrivalPos="19.96" arrivalPosLat="0.00" arrivalSpeed="12.90" duration="43.20" routeLength="289.97" waitingTime="9.60" waitingCount="1" stopTime="0.00" timeLoss="20.61" rerouteNo="1" devices="tripinfo_vehicle_62 routing_vehicle_62 emissions_vehicle_62 battery_vehicle_62" vType="human" speedFactor="1.02" vaporized="">
        <emissions CO_abs="0" CO2_abs="0" HC_abs="0" PMx_abs="0" NOx_abs="0" fuel_abs="0" electricity_abs="101.595076"/>
    </tripinfo>
    <tripinfo id="vehicle_98" depart="18.80" departLane="road3_0" departPos="4.10" departPosLat="0.00" departSpeed="1.32" departDelay="9.78" arrival="52.80" arrivalLane="-road0_0" arrivalPos="19.96" arrivalPosLat="-0.00" arrivalSpeed="12.33" duration="34.00" routeLength="289.97" waitingTime="0.00" waitingCount="0" stopTime="0.00" timeLoss="11.91" rerouteNo="1" devices="tripinfo_vehicle_98 routing_vehicle_98 emissions_vehicle_98 battery_vehicle_98" vType="human" speedFactor="1.12" vaporized="">
        <emissions CO_abs="0" CO2_abs="0" HC_abs="0" PMx_abs="0" NOx_abs="0" fuel_abs="0" electricity_abs="95.815647"/>
    </tripinfo>
    <tripinfo id="vehicle_70" depart="29.20" departLane="road3_0" departPos="4.10" departPosLat="0.00" departSpeed="2.25" departDelay="17.67" arrival="54.40" arrivalLane="-road1_0" arrivalPos="19.96" arrivalPosLat="0.00" arrivalSpeed="11.77" duration="25.20" routeLength="206.37" waitingTime="0.00" waitingCount="0" stopTime="0.00" timeLoss="9.07" rerouteNo="1" devices="tripinfo_vehicle_70 routing_vehicle_70 emissions_vehicle_70 battery_vehicle_70" vType="human" speedFactor="1.02" vaporized="">
        <emissions CO_abs="0" CO2_abs="0" HC_abs="0" PMx_abs="0" NOx_abs="0" fuel_abs="0" electricity_abs="74.839014"/>
    </tripinfo>
    <tripinfo id="vehicle_87" depart="4.40" departLane="road0_0" departPos="4.10" departPosLat="0.00" departSpeed="2.27" departDelay="2.07" arrival="55.60" arrivalLane="-road2_0" arrivalPos="19.96" arrivalPosLat="0.00" arrivalSpeed="13.75" duration="51.20" routeLength="206.37" waitingTime="22.80" waitingCount="1" stopTime="0.00" timeLoss="34.79" rerouteNo="0" devices="tripinfo_vehicle_87 emissions_vehicle_87 battery_vehicle_87" vType="human" speedFactor="1.04" vaporized="">
        <emissions CO_abs="0" CO2_abs="0" HC_abs="0" PMx_abs="0" NOx_abs="0" fuel_abs="0" electricity_abs="91.417768"/>
    </tripinfo>
    <tripinfo id="vehicle_19" depart="23.20" departLane="road3_0" departPos="4.10" departPosLat="0.00" departSpeed="1.91" departDelay="13.63" arrival="56.00" arrivalLane="-road0_0" arrivalPos="19.96" arrivalPosLat="0.00" arrivalSpeed="13.29" duration="32.80" routeLength="289.97" waitingTime="0.00" waitingCount="0" stopTime="0.00" timeLoss="10.45" rerouteNo="1" devices="tripinfo_vehicle_19 routing_vehicle_19 emissions_vehicle_19 battery_vehicle_19" vType="human" speedFactor="1.16" vaporized="">
        <emissions CO_abs="0" CO2_abs="0" HC_abs="0" PMx_abs="0" NOx_abs="0" fuel_abs="0" electricity_abs="103.105441"/>
    </tripinfo>
    <tripinfo id="vehicle_91" depart="31.20" departLane="road3_0" departPos="4.10" departPosLat="0.00" departSpeed="2.27" departDelay="17.26" arrival="57.20" arrivalLane="-road1_0" arrivalPos="19.96" arrivalPosLat="0.00" arrivalSpeed="10.78" duration="26.00" routeLength="206.37" waitingTime="0.00" waitingCount="0" stopTime="0.00" timeLoss="7.73" rerouteNo="1" devices="tripinfo_vehicle_91 routing_vehicle_91 emissions_vehicle_91 battery_vehicle_91" vType="human" speedFactor="0.89" vaporized="">
        <emissions CO_abs="0" CO2_abs="0" HC_abs="0" PMx_abs="0" NOx_abs="0" fuel_abs="0" electricity_abs="65.459044"/>
    </tripinfo>
    <tripinfo id="vehicle_112" depart="25.20" departLane="road3_0" departPos="4.10" departPosLat="0.00" departSpeed="3.00" departDelay="14.88" arrival="58.40" arrivalLane="-road0_0" arrivalPos="19.96" arrivalPosLat="0.00" arrivalSpeed="12.24" duration="33.20" routeLength="289.97" waitingTime="0.00" waitingCount="0" stopTime="0.00" timeLoss="11.09" rerouteNo="1" devices="tripinfo_vehicle_112 routing_vehicle_112 emissions_vehicle_112 battery_vehicle_112" vType="human" speedFactor="1.10" vaporized="">
        <emissions CO_abs="0" CO2_abs="0" HC_abs="0" PMx_abs="0" NOx_abs="0" fuel_abs="0" electricity_abs="93.604687"/>
    </tripinfo>
    <tripinfo id="vehicle_15" depart="10.40" departLane="road1_0" departPos="4.10" departPosLat="0.00" departSpeed="1.42" departDelay="5.90" arrival="58.80" arrivalLane="-road2_0" arrivalPos="19.96" arrivalPosLat="0.00" arrivalSpeed="11.67" duration="48.40" routeLength="289.97" waitingTime="8.40" waitingCount="3" stopTime="0.00" timeLoss="24.51" rerouteNo="1" devices="tripinfo_vehicle_15 routing_vehicle_15 emissions_vehicle_15 battery_vehicle_15" vType="human" speedFactor="0.93" vaporized="">
        <emissions CO_abs="0" CO2_abs="0" HC_abs="0" PMx_abs="0" NOx_abs="0" fuel_abs="0" electricity_abs="91.384319"/>
    </tripinfo>
    <tripinfo id="vehicle_39" depart="34.00" departLane="road1_0" departPos="4.10" departPosLat="0.00" departSpeed="2.77" departDelay="25.13" arrival="59.20" arrivalLane="-road3_0" arrivalPos="19.96" arrivalPosLat="0.00" arrivalSpeed="10.65" duration="25.20" routeLength="206.37" waitingTime="0.00" waitingCount="0" stopTime="0.00" timeLoss="7.17" rerouteNo="1" devices="tripinfo_vehicle_39 routing_vehicle_39 emissions_vehicle_39 battery_vehicle_39" vType="human" speedFactor="0.90" vaporized="">
        <emissions CO_abs="0" CO2_abs="0" HC_abs="0" PMx_abs="0" NOx_abs="0" fuel_abs="0" electricity_abs="64.665256"/>
    </tripinfo>
    <tripinfo id="vehicle_108" depart="27.20" departLane="road3_0" departPos="4.10" departPosLat="0.00" departSpeed="3.17" departDelay="16.56" arrival="60.40" arrivalLane="-road0_0" arrivalPos="19.96" arrivalPosLat="0.00" arrivalSpeed="11.93" duration="33.20" routeLength="289.97" waitingTime="0.00" waitingCount="0" stopTime="0.00" timeLoss="10.89" rerouteNo="1" devices="tripinfo_vehicle_108 routing_vehicle_108 emissions_vehicle_108 battery_vehicle_108" vType="human" speedFactor="1.06" vaporized="">
        <emissions CO_abs="0" CO2_abs="0" HC_abs="0" PMx_abs="0" NOx_abs="0" fuel_abs="0" electricity_abs="92.738904"/>
    </tripinfo>
    <tripinfo id="vehicle_59" depart="6.40" departLane="road0_0" departPos="4.10" departPosLat="0.00" departSpeed="1.72" departDelay="3.71" arrival="61.20" arrivalLane="-road2_0" arrivalPos="19.96" arrivalPosLat="0.00" arrivalSpeed="11.27" duration="54.80" routeLength="206.37" waitingTime="21.60" waitingCount="1" stopTime="0.00" timeLoss="38.23" rerouteNo="0" devices="tripinfo_vehicle_59 emissions_vehicle_59 battery_vehicle_59" vType="human" speedFactor="0.97" vaporized="">
        <emissions CO_abs="0" CO2_abs="0" HC_abs="0" PMx_abs="0" NOx_abs="0" fuel_abs="0" electricity_abs="71.257836"/>
    </tripinfo>
    <tripinfo id="vehicle_1" depart="9.20" departLane="road0_0" departPos="4.10" departPosLat="0.00" departSpeed="1.59" departDelay="5.08" arrival="63.60" arrivalLane="-road2_0" arrivalPos="19.96" arrivalPosLat="0.00" arrivalSpeed="12.59" duration="54.40" routeLength="206.37" waitingTime="21.20" waitingCount="1" stopTime="0.00" timeLoss="37.02" rerouteNo="0" devices="tripinfo_vehicle_1 emissions_vehicle_1 battery_vehicle_1" vType="human" speedFactor="0.94" vaporized="">
        <emissions CO_abs="0" CO2_abs="0" HC_abs="0" PMx_abs="0" NOx_abs="0" fuel_abs="0" electricity_abs="77.734460"/>
    </tripinfo>
    <tripinfo id="vehicle_29" depart="38.40" departLane="road0_0" departPos="4.10" departPosLat="0.00" departSpeed="2.95" departDelay="32.80" arrival="64.80" arrivalLane="-road3_0" arrivalPos="19.96" arrivalPosLat="0.00" arrivalSpeed="11.92" duration="26.40" routeLength="122.77" waitingTime="6.00" waitingCount="1" stopTime="0.00" timeLoss="15.02" rerouteNo="0" devices="tripinfo_vehicle_29 emissions_vehicle_29 battery_vehicle_29" vType="human" speedFactor="0.93" vaporized="">
        <emissions CO_abs="0" CO2_abs="0" HC_abs="0" PMx_abs="0" NOx_abs="0" fuel_abs="0" electricity_abs="57.269986"/>
    </tripinfo>
    <tripinfo id="vehicle_101" depart="38.00" departLane="road1_0" departPos="4.10" departPosLat="0.00" departSpeed="4.04" departDelay="27.30" arrival="65.60" arrivalLane="-road0_0" arrivalPos="19.96" arrivalPosLat="0.00" arrivalSpeed="12.38" duration="27.60" routeLength="122.77" waitingTime="8.00" waitingCount="1" stopTime="0.00" timeLoss="16.53" rerouteNo="1" devices="tripinfo_vehicle_101 routing_vehicle_101 emissions_vehicle_101 battery_vehicle_101" vType="human" speedFactor="0.96" vaporized="">
        <emissions CO_abs="0" CO2_abs="0" HC_abs="0" PMx_abs="0" NOx_abs="0" fuel_abs="0" electricity_abs="59.154253"/>
    </tripinfo>
    <tripinfo id="vehicle_96" depart="29.20" departLane="road1_0" departPos="4.10" departPosLat="0.00" departSpeed="2.12" departDelay="21.77" arrival="68.00" arrivalLane="-road2_0" arrivalPos="19.96" arrivalPosLat="0.00" arrivalSpeed="11.73" duration="38.80" routeLength="289.97" waitingTime="0.00" waitingCount="0" stopTime="0.00" timeLoss="16.31" rerouteNo="1" devices="tripinfo_vehicle_96 routing_vehicle_96 emissions_vehicle_96 battery_vehicle_96" vType="human" speedFactor="1.01" vaporized="">
        <emissions CO_abs="0" CO2_abs="0" HC_abs="0" PMx_abs="0" NOx_abs="0" fuel_abs="0" electricity_abs="86.196986"/>
    </tripinfo>
    <tripinfo id="vehicle_103" depart="40.00" departLane="road1_0" departPos="4.10" departPosLat="0.00" departSpeed="1.64" departDelay="29.30" arrival="68.40" arrivalLane="-road0_0" arrivalPos="19.96" arrivalPosLat="0.00" arrivalSpeed="10.79" duration="28.40" routeLength="122.77" waitingTime="7.20" waitingCount="2" stopTime="0.00" timeLoss="17.61" rerouteNo="1" devices="tripinfo_vehicle_103 routing_vehicle_103 emissions_vehicle_103 battery_vehicle_103" vType="human" speedFactor="0.95" vaporized="">
        <emissions CO_abs="0" CO2_abs="0" HC_abs="0" PMx_abs="0" NOx_abs="0" fuel_abs="0" electricity_abs="52.009050"/>
    </tripinfo>
    <tripinfo id="vehicle_114" depart="51.60" departLane="road0_0" departPos="4.10" departPosLat="0.00" departSpeed="0.93" departDelay="43.36" arrival="68.80" arrivalLane="-road3_0" arrivalPos="19.96" arrivalPosLat="0.00" arrivalSpeed="12.15" duration="17.20" routeLength="122.77" waitingTime="0.00" waitingCount="0" stopTime="0.00" timeLoss="7.05" rerouteNo="0" devices="tripinfo_vehicle_114 emissions_vehicle_114 battery_vehicle_114" vType="human" speedFactor="1.10" vaporized="">
        <emissions CO_abs="0" CO2_abs="0" HC_abs="0" PMx_abs="0" NOx_abs="0" fuel_abs="0" electricity_abs="60.982978"/>
    </tripinfo>
    <tripinfo id="vehicle_44" depart="33.20" departLane="road3_0" departPos="4.10" departPosLat="0.00" departSpeed="2.60" departDelay="18.24" arrival="70.40" arrivalLane="-road0_0" arrivalPos="19.96" arrivalPosLat="0.00" arrivalSpeed="12.10" duration="37.20" routeLength="289.97" waitingTime="0.00" waitingCount="0" stopTime="0.00" timeLoss="14.88" rerouteNo="1" devices="tripinfo_vehicle_44 routing_vehicle_44 emissions_vehicle_44 battery_vehicle_44" vType="human" speedFactor="1.04" vaporized="">
        <emissions CO_abs="0" CO2_abs="0" HC_abs="0" PMx_abs="0" NOx_abs="0" fuel_abs="0" electricity_abs="89.820327"/>
    </tripinfo>
    <tripinfo id="vehicle_72" depart="31.60" departLane="road1_0" departPos="4.10" departPosLat="0.00" departSpeed="1.43" departDelay="23.54" arrival="73.20" arrivalLane="-road2_0" arrivalPos="19.96" arrivalPosLat="0.00" arrivalSpeed="12.71" duration="41.60" routeLength="289.97" waitingTime="0.00" waitingCount="0" stopTime="0.00" timeLoss="17.80" rerouteNo="1" devices="tripinfo_vehicle_72 routing_vehicle_72 emissions_vehicle_72 battery_vehicle_72" vType="human" speedFactor="0.94" vaporized="">
        <emissions CO_abs="0" CO2_abs="0" HC_abs="0" PMx_abs="0" NOx_abs="0" fuel_abs="0" electricity_abs="91.419918"/>
    </tripinfo>
    <tripinfo id="vehicle_12" depart="35.60" departLane="road3_0" departPos="4.10" departPosLat="0.00" departSpeed="2.42" departDelay="18.29" arrival="73.60" arrivalLane="-road1_0" arrivalPos="19.96" arrivalPosLat="0.00" arrivalSpeed="11.46" duration="38.00" routeLength="206.37" waitingTime="6.40" waitingCount="1" stopTime="0.00" timeLoss="21.90" rerouteNo="1" devices="tripinfo_vehicle_12 routing_vehicle_12 emissions_vehicle_12 battery_vehicle_12" vType="human" speedFactor="1.05" vaporized="">
        <emissions CO_abs="0" CO2_abs="0" HC_abs="0" PMx_abs="0" NOx_abs="0" fuel_abs="0" electricity_abs="69.295984"/>
    </tripinfo>
    <tripinfo id="vehicle_80" depart="17.20" departLane="road2_0" departPos="4.10" departPosLat="0.00" departSpeed="3.39" departDelay="9.83" arrival="75.20" arrivalLane="-road0_0" arrivalPos="19.96" arrivalPosLat="0.00" arrivalSpeed="12.39" duration="58.00" routeLength="206.37" waitingTime="28.80" waitingCount="1" stopTime="0.00" timeLoss="41.33" rerouteNo="1" devices="tripinfo_vehicle_80 routing_vehicle_80 emissions_vehicle_80 battery_vehicle_80" vType="human" speedFactor="1.03" vaporized="">
        <emissions CO_abs="0" CO2_abs="0" HC_abs="0" PMx_abs="0" NOx_abs="0" fuel_abs="0" electricity_abs="76.876672"/>
    </tripinfo>
    <tripinfo id="vehicle_60" depart="36.00" departLane="road0_0" departPos="4.10" departPosLat="0.00" departSpeed="1.33" departDelay="31.14" arrival="75.60" arrivalLane="-road2_0" arrivalPos="19.96" arrivalPosLat="0.00" arrivalSpeed="11.10" duration="39.60" routeLength="206.37" waitingTime="6.80" waitingCount="2" stopTime="0.00" timeLoss="23.35" rerouteNo="0" devices="tripinfo_vehicle_60 emissions_vehicle_60 battery_vehicle_60" vType="human" speedFactor="1.08" vaporized="">
        <emissions CO_abs="0" CO2_abs="0" HC_abs="0" PMx_abs="0" NOx_abs="0" fuel_abs="0" electricity_abs="65.904456"/>
    </tripinfo>
    <tripinfo id="vehicle_45" depart="40.40" departLane="road0_0" departPos="4.10" departPosLat="0.00" departSpeed="1.09" departDelay="33.47" arrival="77.60" arrivalLane="-road2_0" arrivalPos="19.96" arrivalPosLat="0.00" arrivalSpeed="11.76" duration="37.20" routeLength="206.37" waitingTime="5.20" waitingCount="1" stopTime="0.00" timeLoss="21.08" rerouteNo="0" devices="tripinfo_vehicle_45 emissions_vehicle_45 battery_vehicle_45" vType="human" speedFactor="1.09" vaporized="">
        <emissions CO_abs="0" CO2_abs="0" HC_abs="0" PMx_abs="0" NOx_abs="0" fuel_abs="0" electricity_abs="69.091469"/>
    </tripinfo>
    <tripinfo id="vehicle_63" depart="53.20" departLane="road2_0" departPos="4.10" departPosLat="0.00" departSpeed="1.14" departDelay="40.47" arrival="77.60" arrivalLane="-road0_0" arrivalPos="19.96" arrivalPosLat="0.00" arrivalSpeed="11.83" duration="24.40" routeLength="206.37" waitingTime="0.00" waitingCount="0" stopTime="0.00" timeLoss="7.96" rerouteNo="1" devices="tripinfo_vehicle_63 routing_vehicle_63 emissions_vehicle_63 battery_vehicle_63" vType="human" speedFactor="0.99" vaporized="">
        <emissions CO_abs="0" CO2_abs="0" HC_abs="0" PMx_abs="0" NOx_abs="0" fuel_abs="0" electricity_abs="76.528121"/>
    </tripinfo>
    <tripinfo id="vehicle_48" depart="40.00" departLane="road3_0" departPos="4.10" departPosLat="0.00" departSpeed="1.31" departDelay="19.87" arrival="79.20" arrivalLane="-road1_0" arrivalPos="19.96" arrivalPosLat="0.00" arrivalSpeed="11.26" duration="39.20" routeLength="206.37" waitingTime="4.00" waitingCount="1" stopTime="0.00" timeLoss="20.45" rerouteNo="1" devices="tripinfo_vehicle_48 routing_vehicle_48 emissions_vehicle_48 battery_vehicle_48" vType="human" speedFactor="0.88" vaporized="">