<?xml version="1.0" encoding="UTF-8"?>

<!-- generated on 2025-05-29 08:52:24 by Eclipse SUMO sumo Version v1_20_0+0085-e155ab8699b
<configuration xmlns:xsi="http://www.w3.org/2001/XMLSchema-instance" xsi:noNamespaceSchemaLocation="http://sumo.dlr.de/xsd/sumoConfiguration.xsd">

    <input>
        <net-file value="../networks/roundabout.net.xml"/>
        <route-files value="../networks/routes1.rou.xml"/>
    </input>

    <output>
        <output-prefix value="93-"/>
        <battery-output.precision value="4"/>
        <tripinfo-output value="../networks/output_data/output_kan/tripinfo/tripinfo-output.xml"/>
        <collision-output value="../networks/output_data/output_kan/collision/collision-output.xml"/>
    </output>

    <time>
        <begin value="0"/>
        <step-length value="0.4"/>
    </time>

    <processing>
        <step-method.ballistic value="true"/>
        <lateral-resolution value="3.2"/>
        <collision.action value="warn"/>
        <collision.mingap-factor value="0"/>
        <time-to-teleport value="-1"/>
        <random-depart-offset value="5"/>
    </processing>

    <report>
        <no-warnings value="True"/>
        <no-step-log value="True"/>
    </report>

    <emissions>
        <device.emissions.probability value="1"/>
    </emissions>

    <battery>
        <device.battery.probability value="1"/>
    </battery>

    <traci_server>
        <remote-port value="48919"/>
    </traci_server>

    <gui_only>
        <quit-on-end value="True"/>
        <start value="True"/>
    </gui_only>

</configuration>
-->

<tripinfos xmlns:xsi="http://www.w3.org/2001/XMLSchema-instance" xsi:noNamespaceSchemaLocation="http://sumo.dlr.de/xsd/tripinfo_file.xsd">
    <tripinfo id="vehicle_12" depart="1.20" departLane="road2_0" departPos="4.10" departPosLat="0.00" departSpeed="5.17" departDelay="0.35" arrival="16.40" arrivalLane="-road1_0" arrivalPos="19.96" arrivalPosLat="0.00" arrivalSpeed="13.36" duration="15.20" routeLength="122.77" waitingTime="0.00" waitingCount="0" stopTime="0.00" timeLoss="5.01" rerouteNo="1" devices="tripinfo_vehicle_12 routing_vehicle_12 emissions_vehicle_12 battery_vehicle_12" vType="human" speedFactor="1.05" vaporized="">
        <emissions CO_abs="0" CO2_abs="0" HC_abs="0" PMx_abs="0" NOx_abs="0" fuel_abs="0" electricity_abs="64.635438"/>
    </tripinfo>
    <tripinfo id="vehicle_15" depart="2.00" departLane="road0_0" departPos="4.10" departPosLat="0.00" departSpeed="9.75" departDelay="0.17" arrival="17.20" arrivalLane="-road3_0" arrivalPos="19.96" arrivalPosLat="0.00" arrivalSpeed="11.11" duration="15.20" routeLength="122.77" waitingTime="0.00" waitingCount="0" stopTime="0.00" timeLoss="4.17" rerouteNo="0" devices="tripinfo_vehicle_15 emissions_vehicle_15 battery_vehicle_15" vType="human" speedFactor="0.93" vaporized="">
        <emissions CO_abs="0" CO2_abs="0" HC_abs="0" PMx_abs="0" NOx_abs="0" fuel_abs="0" electricity_abs="31.584899"/>
    </tripinfo>
    <tripinfo id="vehicle_42" depart="0.40" departLane="road2_0" departPos="4.10" departPosLat="0.00" departSpeed="9.48" departDelay="0.17" arrival="20.80" arrivalLane="-road0_0" arrivalPos="19.96" arrivalPosLat="0.00" arrivalSpeed="13.24" duration="20.40" routeLength="206.37" waitingTime="0.00" waitingCount="0" stopTime="0.00" timeLoss="4.19" rerouteNo="1" devices="tripinfo_vehicle_42 routing_vehicle_42 emissions_vehicle_42 battery_vehicle_42" vType="human" speedFactor="1.09" vaporized="">
        <emissions CO_abs="0" CO2_abs="0" HC_abs="0" PMx_abs="0" NOx_abs="0" fuel_abs="0" electricity_abs="71.146142"/>
    </tripinfo>
    <tripinfo id="vehicle_41" depart="4.80" departLane="road2_0" departPos="4.10" departPosLat="0.00" departSpeed="2.83" departDelay="1.66" arrival="21.20" arrivalLane="-road1_0" arrivalPos="19.96" arrivalPosLat="0.00" arrivalSpeed="11.73" duration="16.40" routeLength="122.77" waitingTime="0.00" waitingCount="0" stopTime="0.00" timeLoss="5.81" rerouteNo="1" devices="tripinfo_vehicle_41 routing_vehicle_41 emissions_vehicle_41 battery_vehicle_41" vType="human" speedFactor="0.96" vaporized="">
        <emissions CO_abs="0" CO2_abs="0" HC_abs="0" PMx_abs="0" NOx_abs="0" fuel_abs="0" electricity_abs="56.356768"/>
    </tripinfo>
    <tripinfo id="vehicle_43" depart="0.40" departLane="road1_0" departPos="4.10" departPosLat="0.00" departSpeed="9.75" departDelay="0.15" arrival="21.60" arrivalLane="-road3_0" arrivalPos="19.96" arrivalPosLat="0.00" arrivalSpeed="12.46" duration="21.20" routeLength="206.37" waitingTime="0.00" waitingCount="0" stopTime="0.00" timeLoss="4.64" rerouteNo="1" devices="tripinfo_vehicle_43 routing_vehicle_43 emissions_vehicle_43 battery_vehicle_43" vType="human" speedFactor="1.04" vaporized="">
        <emissions CO_abs="0" CO2_abs="0" HC_abs="0" PMx_abs="0" NOx_abs="0" fuel_abs="0" electricity_abs="60.880510"/>
    </tripinfo>
    <tripinfo id="vehicle_71" depart="6.80" departLane="road2_0" departPos="4.10" departPosLat="0.00" departSpeed="2.63" departDelay="1.20" arrival="24.00" arrivalLane="-road1_0" arrivalPos="19.96" arrivalPosLat="0.00" arrivalSpeed="11.52" duration="17.20" routeLength="122.77" waitingTime="0.00" waitingCount="0" stopTime="0.00" timeLoss="6.45" rerouteNo="1" devices="tripinfo_vehicle_71 routing_vehicle_71 emissions_vehicle_71 battery_vehicle_71" vType="human" speedFactor="0.97" vaporized="">
        <emissions CO_abs="0" CO2_abs="0" HC_abs="0" PMx_abs="0" NOx_abs="0" fuel_abs="0" electricity_abs="54.096709"/>
    </tripinfo>
    <tripinfo id="vehicle_75" depart="11.20" departLane="road3_0" departPos="4.10" departPosLat="0.00" departSpeed="2.76" departDelay="5.92" arrival="26.80" arrivalLane="-road2_0" arrivalPos="19.96" arrivalPosLat="0.00" arrivalSpeed="12.54" duration="15.60" routeLength="122.77" waitingTime="0.00" waitingCount="0" stopTime="0.00" timeLoss="5.07" rerouteNo="1" devices="tripinfo_vehicle_75 routing_vehicle_75 emissions_vehicle_75 battery_vehicle_75" vType="human" speedFactor="0.98" vaporized="">
        <emissions CO_abs="0" CO2_abs="0" HC_abs="0" PMx_abs="0" NOx_abs="0" fuel_abs="0" electricity_abs="63.503760"/>
    </tripinfo>
    <tripinfo id="vehicle_108" depart="4.40" departLane="road3_0" departPos="4.10" departPosLat="0.00" departSpeed="4.19" departDelay="0.28" arrival="27.20" arrivalLane="-road1_0" arrivalPos="19.96" arrivalPosLat="0.00" arrivalSpeed="12.94" duration="22.80" routeLength="206.37" waitingTime="0.00" waitingCount="0" stopTime="0.00" timeLoss="6.40" rerouteNo="1" devices="tripinfo_vehicle_108 routing_vehicle_108 emissions_vehicle_108 battery_vehicle_108" vType="human" speedFactor="1.06" vaporized="">
        <emissions CO_abs="0" CO2_abs="0" HC_abs="0" PMx_abs="0" NOx_abs="0" fuel_abs="0" electricity_abs="84.638211"/>
    </tripinfo>
    <tripinfo id="vehicle_3" depart="6.00" departLane="road3_0" departPos="4.10" departPosLat="0.00" departSpeed="0.89" departDelay="1.52" arrival="30.00" arrivalLane="-road1_0" arrivalPos="19.96" arrivalPosLat="0.00" arrivalSpeed="13.39" duration="24.00" routeLength="206.37" waitingTime="0.00" waitingCount="0" stopTime="0.00" timeLoss="7.61" rerouteNo="1" devices="tripinfo_vehicle_3 routing_vehicle_3 emissions_vehicle_3 battery_vehicle_3" vType="human" speedFactor="1.08" vaporized="">
        <emissions CO_abs="0" CO2_abs="0" HC_abs="0" PMx_abs="0" NOx_abs="0" fuel_abs="0" electricity_abs="90.548620"/>
    </tripinfo>
    <tripinfo id="vehicle_52" depart="1.20" departLane="road1_0" departPos="4.10" departPosLat="0.00" departSpeed="3.06" departDelay="0.50" arrival="31.20" arrivalLane="-road2_0" arrivalPos="19.96" arrivalPosLat="0.00" arrivalSpeed="11.98" duration="30.00" routeLength="289.97" waitingTime="0.00" waitingCount="0" stopTime="0.00" timeLoss="7.49" rerouteNo="1" devices="tripinfo_vehicle_52 routing_vehicle_52 emissions_vehicle_52 battery_vehicle_52" vType="human" speedFactor="1.02" vaporized="">
        <emissions CO_abs="0" CO2_abs="0" HC_abs="0" PMx_abs="0" NOx_abs="0" fuel_abs="0" electricity_abs="96.494659"/>
    </tripinfo>
    <tripinfo id="vehicle_116" depart="2.40" departLane="road2_0" departPos="4.10" departPosLat="0.00" departSpeed="1.99" departDelay="0.84" arrival="31.60" arrivalLane="-road3_0" arrivalPos="19.96" arrivalPosLat="0.00" arrivalSpeed="13.11" duration="29.20" routeLength="289.97" waitingTime="0.00" waitingCount="0" stopTime="0.00" timeLoss="7.02" rerouteNo="1" devices="tripinfo_vehicle_116 routing_vehicle_116 emissions_vehicle_116 battery_vehicle_116" vType="human" speedFactor="1.18" vaporized="">
        <emissions CO_abs="0" CO2_abs="0" HC_abs="0" PMx_abs="0" NOx_abs="0" fuel_abs="0" electricity_abs="113.167774"/>
    </tripinfo>
    <tripinfo id="vehicle_13" depart="5.20" departLane="road1_0" departPos="4.10" departPosLat="0.00" departSpeed="2.66" departDelay="4.32" arrival="32.00" arrivalLane="-road0_0" arrivalPos="19.96" arrivalPosLat="0.00" arrivalSpeed="12.54" duration="26.80" routeLength="122.77" waitingTime="8.80" waitingCount="1" stopTime="0.00" timeLoss="16.57" rerouteNo="1" devices="tripinfo_vehicle_13 routing_vehicle_13 emissions_vehicle_13 battery_vehicle_13" vType="human" speedFactor="1.12" vaporized="">
        <emissions CO_abs="0" CO2_abs="0" HC_abs="0" PMx_abs="0" NOx_abs="0" fuel_abs="0" electricity_abs="63.898518"/>
    </tripinfo>
    <tripinfo id="vehicle_60" depart="3.20" departLane="road1_0" departPos="4.10" departPosLat="0.00" departSpeed="1.16" departDelay="2.63" arrival="34.00" arrivalLane="-road2_0" arrivalPos="19.96" arrivalPosLat="0.00" arrivalSpeed="12.13" duration="30.80" routeLength="289.97" waitingTime="0.00" waitingCount="0" stopTime="0.00" timeLoss="8.69" rerouteNo="1" devices="tripinfo_vehicle_60 routing_vehicle_60 emissions_vehicle_60 battery_vehicle_60" vType="human" speedFactor="1.08" vaporized="">
        <emissions CO_abs="0" CO2_abs="0" HC_abs="0" PMx_abs="0" NOx_abs="0" fuel_abs="0" electricity_abs="99.048670"/>
    </tripinfo>
    <tripinfo id="vehicle_2" depart="8.80" departLane="road0_0" departPos="4.10" departPosLat="0.00" departSpeed="9.75" departDelay="0.26" arrival="35.60" arrivalLane="-road3_0" arrivalPos="19.96" arrivalPosLat="0.00" arrivalSpeed="12.91" duration="26.80" routeLength="122.77" waitingTime="11.20" waitingCount="1" stopTime="0.00" timeLoss="16.77" rerouteNo="0" devices="tripinfo_vehicle_2 emissions_vehicle_2 battery_vehicle_2" vType="human" speedFactor="1.01" vaporized="">
        <emissions CO_abs="0" CO2_abs="0" HC_abs="0" PMx_abs="0" NOx_abs="0" fuel_abs="0" electricity_abs="46.107035"/>
    </tripinfo>
    <tripinfo id="vehicle_5" depart="2.80" departLane="road3_0" departPos="4.10" departPosLat="0.00" departSpeed="1.31" departDelay="0.06" arrival="36.80" arrivalLane="-road0_0" arrivalPos="19.96" arrivalPosLat="0.00" arrivalSpeed="11.31" duration="34.00" routeLength="289.97" waitingTime="0.00" waitingCount="0" stopTime="0.00" timeLoss="6.95" rerouteNo="1" devices="tripinfo_vehicle_5 routing_vehicle_5 emissions_vehicle_5 battery_vehicle_5" vType="human" speedFactor="0.83" vaporized="">
        <emissions CO_abs="0" CO2_abs="0" HC_abs="0" PMx_abs="0" NOx_abs="0" fuel_abs="0" electricity_abs="84.217750"/>
    </tripinfo>
    <tripinfo id="vehicle_11" depart="17.20" departLane="road3_0" departPos="4.10" departPosLat="0.00" departSpeed="2.98" departDelay="3.55" arrival="36.80" arrivalLane="-road2_0" arrivalPos="19.96" arrivalPosLat="0.00" arrivalSpeed="12.29" duration="19.60" routeLength="122.77" waitingTime="0.00" waitingCount="0" stopTime="0.00" timeLoss="9.00" rerouteNo="1" devices="tripinfo_vehicle_11 routing_vehicle_11 emissions_vehicle_11 battery_vehicle_11" vType="human" speedFactor="1.03" vaporized="">
        <emissions CO_abs="0" CO2_abs="0" HC_abs="0" PMx_abs="0" NOx_abs="0" fuel_abs="0" electricity_abs="55.024768"/>
    </tripinfo>
    <tripinfo id="vehicle_24" depart="9.20" departLane="road1_0" departPos="4.10" departPosLat="0.00" departSpeed="1.19" departDelay="6.88" arrival="40.40" arrivalLane="-road0_0" arrivalPos="19.96" arrivalPosLat="0.00" arrivalSpeed="10.30" duration="31.20" routeLength="122.77" waitingTime="6.00" waitingCount="1" stopTime="0.00" timeLoss="18.70" rerouteNo="1" devices="tripinfo_vehicle_24 routing_vehicle_24 emissions_vehicle_24 battery_vehicle_24" vType="human" speedFactor="0.83" vaporized="">
        <emissions CO_abs="0" CO2_abs="0" HC_abs="0" PMx_abs="0" NOx_abs="0" fuel_abs="0" electricity_abs="43.931184"/>
    </tripinfo>
    <tripinfo id="vehicle_20" depart="8.40" departLane="road3_0" departPos="4.10" departPosLat="0.00" departSpeed="1.85" departDelay="3.46" arrival="42.80" arrivalLane="-road0_0" arrivalPos="19.96" arrivalPosLat="0.00" arrivalSpeed="13.52" duration="34.40" routeLength="289.97" waitingTime="0.00" waitingCount="0" stopTime="0.00" timeLoss="11.78" rerouteNo="1" devices="tripinfo_vehicle_20 routing_vehicle_20 emissions_vehicle_20 battery_vehicle_20" vType="human" speedFactor="1.02" vaporized="">
        <emissions CO_abs="0" CO2_abs="0" HC_abs="0" PMx_abs="0" NOx_abs="0" fuel_abs="0" electricity_abs="109.181250"/>
    </tripinfo>
    <tripinfo id="vehicle_67" depart="13.20" departLane="road2_0" departPos="4.10" departPosLat="0.00" departSpeed="1.29" departDelay="5.64" arrival="43.60" arrivalLane="-road1_0" arrivalPos="19.96" arrivalPosLat="0.00" arrivalSpeed="11.24" duration="30.40" routeLength="122.77" waitingTime="9.20" waitingCount="1" stopTime="0.00" timeLoss="19.07" rerouteNo="1" devices="tripinfo_vehicle_67 routing_vehicle_67 emissions_vehicle_67 battery_vehicle_67" vType="human" speedFactor="0.91" vaporized="">
        <emissions CO_abs="0" CO2_abs="0" HC_abs="0" PMx_abs="0" NOx_abs="0" fuel_abs="0" electricity_abs="55.279229"/>
    </tripinfo>
    <tripinfo id="vehicle_66" depart="21.60" departLane="road1_0" departPos="4.10" departPosLat="0.00" departSpeed="0.30" departDelay="19.59" arrival="45.20" arrivalLane="-road0_0" arrivalPos="19.96" arrivalPosLat="0.00" arrivalSpeed="11.14" duration="23.60" routeLength="122.77" waitingTime="0.00" waitingCount="0" stopTime="0.00" timeLoss="12.20" rerouteNo="1" devices="tripinfo_vehicle_66 routing_vehicle_66 emissions_vehicle_66 battery_vehicle_66" vType="human" speedFactor="0.91" vaporized="">
        <emissions CO_abs="0" CO2_abs="0" HC_abs="0" PMx_abs="0" NOx_abs="0" fuel_abs="0" electricity_abs="48.533735"/>
    </tripinfo>
    <tripinfo id="vehicle_80" depart="10.00" departLane="road0_0" departPos="4.10" departPosLat="0.00" departSpeed="5.40" departDelay="0.35" arrival="46.00" arrivalLane="-road2_0" arrivalPos="19.96" arrivalPosLat="0.00" arrivalSpeed="13.70" duration="36.00" routeLength="206.37" waitingTime="10.00" waitingCount="1" stopTime="0.00" timeLoss="19.45" rerouteNo="0" devices="tripinfo_vehicle_80 emissions_vehicle_80 battery_vehicle_80" vType="human" speedFactor="1.03" vaporized="">
        <emissions CO_abs="0" CO2_abs="0" HC_abs="0" PMx_abs="0" NOx_abs="0" fuel_abs="0" electricity_abs="84.726057"/>
    </tripinfo>
    <tripinfo id="vehicle_98" depart="19.20" departLane="road3_0" departPos="4.10" departPosLat="0.00" departSpeed="3.04" departDelay="4.90" arrival="46.00" arrivalLane="-road1_0" arrivalPos="19.96" arrivalPosLat="0.00" arrivalSpeed="12.55" duration="26.80" routeLength="206.37" waitingTime="0.00" waitingCount="0" stopTime="0.00" timeLoss="10.59" rerouteNo="1" devices="tripinfo_vehicle_98 routing_vehicle_98 emissions_vehicle_98 battery_vehicle_98" vType="human" speedFactor="1.12" vaporized="">
        <emissions CO_abs="0" CO2_abs="0" HC_abs="0" PMx_abs="0" NOx_abs="0" fuel_abs="0" electricity_abs="76.407038"/>
    </tripinfo>
    <tripinfo id="vehicle_70" depart="24.40" departLane="road1_0" departPos="4.10" departPosLat="0.00" departSpeed="2.83" departDelay="19.75" arrival="48.00" arrivalLane="-road0_0" arrivalPos="19.96" arrivalPosLat="0.00" arrivalSpeed="12.36" duration="23.60" routeLength="122.77" waitingTime="0.00" waitingCount="0" stopTime="0.00" timeLoss="13.35" rerouteNo="1" devices="tripinfo_vehicle_70 routing_vehicle_70 emissions_vehicle_70 battery_vehicle_70" vType="human" speedFactor="1.02" vaporized="">
        <emissions CO_abs="0" CO2_abs="0" HC_abs="0" PMx_abs="0" NOx_abs="0" fuel_abs="0" electricity_abs="56.546123"/>
    </tripinfo>
    <tripinfo id="vehicle_62" depart="21.20" departLane="road3_0" departPos="4.10" departPosLat="0.00" departSpeed="3.25" departDelay="6.04" arrival="49.20" arrivalLane="-road1_0" arrivalPos="19.96" arrivalPosLat="0.00" arrivalSpeed="12.58" duration="28.00" routeLength="206.37" waitingTime="0.00" waitingCount="0" stopTime="0.00" timeLoss="11.41" rerouteNo="1" devices="tripinfo_vehicle_62 routing_vehicle_62 emissions_vehicle_62 battery_vehicle_62" vType="human" speedFactor="1.02" vaporized="">
        <emissions CO_abs="0" CO2_abs="0" HC_abs="0" PMx_abs="0" NOx_abs="0" fuel_abs="0" electricity_abs="72.863059"/>
    </tripinfo>
    <tripinfo id="vehicle_109" depart="30.80" departLane="road0_0" departPos="4.10" departPosLat="0.00" departSpeed="1.75" departDelay="18.27" arrival="49.60" arrivalLane="-road3_0" arrivalPos="19.96" arrivalPosLat="0.00" arrivalSpeed="11.56" duration="18.80" routeLength="122.77" waitingTime="0.00" waitingCount="0" stopTime="0.00" timeLoss="8.12" rerouteNo="0" devices="tripinfo_vehicle_109 emissions_vehicle_109 battery_vehicle_109" vType="human" speedFactor="0.96" vaporized="">
        <emissions CO_abs="0" CO2_abs="0" HC_abs="0" PMx_abs="0" NOx_abs="0" fuel_abs="0" electricity_abs="56.708778"/>
    </tripinfo>
    <tripinfo id="vehicle_83" depart="15.20" departLane="road3_0" departPos="4.10" departPosLat="0.00" departSpeed="3.11" departDelay="3.20" arrival="51.20" arrivalLane="-road0_0" arrivalPos="19.96" arrivalPosLat="0.00" arrivalSpeed="12.96" duration="36.00" routeLength="289.97" waitingTime="0.00" waitingCount="0" stopTime="0.00" timeLoss="12.88" rerouteNo="1" devices="tripinfo_vehicle_83 routing_vehicle_83 emissions_vehicle_83 battery_vehicle_83" vType="human" speedFactor="0.97" vaporized="">
        <emissions CO_abs="0" CO2_abs="0" HC_abs="0" PMx_abs="0" NOx_abs="0" fuel_abs="0" electricity_abs="97.709791"/>
    </tripinfo>
    <tripinfo id="vehicle_35" depart="23.20" departLane="road3_0" departPos="4.10" departPosLat="0.00" departSpeed="2.25" departDelay="7.99" arrival="51.60" arrivalLane="-road1_0" arrivalPos="19.96" arrivalPosLat="0.00" arrivalSpeed="11.87" duration="28.40" routeLength="206.37" waitingTime="0.00" waitingCount="0" stopTime="0.00" timeLoss="12.15" rerouteNo="1" devices="tripinfo_vehicle_35 routing_vehicle_35 emissions_vehicle_35 battery_vehicle_35" vType="human" speedFactor="1.02" vaporized="">
        <emissions CO_abs="0" CO2_abs="0" HC_abs="0" PMx_abs="0" NOx_abs="0" fuel_abs="0" electricity_abs="69.295303"/>
    </tripinfo>
    <tripinfo id="vehicle_113" depart="7.20" departLane="road1_0" departPos="4.10" departPosLat="0.00" departSpeed="3.02" departDelay="5.81" arrival="51.60" arrivalLane="-road2_0" arrivalPos="19.96" arrivalPosLat="0.00" arrivalSpeed="12.41" duration="44.40" routeLength="289.97" waitingTime="6.80" waitingCount="1" stopTime="0.00" timeLoss="22.02" rerouteNo="1" devices="tripinfo_vehicle_113 routing_vehicle_113 emissions_vehicle_113 battery_vehicle_113" vType="human" speedFactor="1.01" vaporized="">
        <emissions CO_abs="0" CO2_abs="0" HC_abs="0" PMx_abs="0" NOx_abs="0" fuel_abs="0" electricity_abs="96.485014"/>
    </tripinfo>
    <tripinfo id="vehicle_74" depart="36.80" departLane="road0_0" departPos="4.10" departPosLat="0.00" departSpeed="1.79" departDelay="21.00" arrival="54.40" arrivalLane="-road3_0" arrivalPos="19.96" arrivalPosLat="0.00" arrivalSpeed="12.70" duration="17.60" routeLength="122.77" waitingTime="0.00" waitingCount="0" stopTime="0.00" timeLoss="6.67" rerouteNo="0" devices="tripinfo_vehicle_74 emissions_vehicle_74 battery_vehicle_74" vType="human" speedFactor="0.96" vaporized="">
        <emissions CO_abs="0" CO2_abs="0" HC_abs="0" PMx_abs="0" NOx_abs="0" fuel_abs="0" electricity_abs="62.742091"/>
    </tripinfo>
    <tripinfo id="vehicle_105" depart="13.20" departLane="road3_0" departPos="4.10" departPosLat="0.00" departSpeed="2.49" departDelay="1.63" arrival="54.80" arrivalLane="-road0_0" arrivalPos="19.96" arrivalPosLat="0.00" arrivalSpeed="13.11" duration="41.60" routeLength="289.97" waitingTime="4.40" waitingCount="3" stopTime="0.00" timeLoss="19.25" rerouteNo="1" devices="tripinfo_vehicle_105 routing_vehicle_105 emissions_vehicle_105 battery_vehicle_105" vType="human" speedFactor="1.07" vaporized="">
        <emissions CO_abs="0" CO2_abs="0" HC_abs="0" PMx_abs="0" NOx_abs="0" fuel_abs="0" electricity_abs="104.296237"/>
    </tripinfo>
    <tripinfo id="vehicle_39" depart="11.60" departLane="road0_0" departPos="4.10" departPosLat="0.00" departSpeed="2.64" departDelay="1.21" arrival="55.20" arrivalLane="-road1_0" arrivalPos="19.96" arrivalPosLat="0.00" arrivalSpeed="11.87" duration="43.60" routeLength="289.97" waitingTime="9.60" waitingCount="1" stopTime="0.00" timeLoss="19.26" rerouteNo="0" devices="tripinfo_vehicle_39 emissions_vehicle_39 battery_vehicle_39" vType="human" speedFactor="0.90" vaporized="">
        <emissions CO_abs="0" CO2_abs="0" HC_abs="0" PMx_abs="0" NOx_abs="0" fuel_abs="0" electricity_abs="91.973314"/>
    </tripinfo>
    <tripinfo id="vehicle_96" depart="26.00" departLane="road0_0" departPos="4.10" departPosLat="0.00" departSpeed="1.20" departDelay="15.27" arrival="57.60" arrivalLane="-road1_0" arrivalPos="19.96" arrivalPosLat="0.00" arrivalSpeed="11.76" duration="31.60" routeLength="289.97" waitingTime="0.00" waitingCount="0" stopTime="0.00" timeLoss="9.15" rerouteNo="0" devices="tripinfo_vehicle_96 emissions_vehicle_96 battery_vehicle_96" vType="human" speedFactor="1.01" vaporized="">
        <emissions CO_abs="0" CO2_abs="0" HC_abs="0" PMx_abs="0" NOx_abs="0" fuel_abs="0" electricity_abs="96.749535"/>
    </tripinfo>
    <tripinfo id="vehicle_23" depart="39.20" departLane="road0_0" departPos="4.10" departPosLat="0.00" departSpeed="2.57" departDelay="22.62" arrival="58.00" arrivalLane="-road3_0" arrivalPos="19.96" arrivalPosLat="0.00" arrivalSpeed="10.77" duration="18.80" routeLength="122.77" waitingTime="0.00" waitingCount="0" stopTime="0.00" timeLoss="6.91" rerouteNo="0" devices="tripinfo_vehicle_23 emissions_vehicle_23 battery_vehicle_23" vType="human" speedFactor="0.89" vaporized="">
        <emissions CO_abs="0" CO2_abs="0" HC_abs="0" PMx_abs="0" NOx_abs="0" fuel_abs="0" electricity_abs="48.091877"/>
    </tripinfo>
    <tripinfo id="vehicle_115" depart="8.80" departLane="road2_0" departPos="4.10" departPosLat="0.00" departSpeed="2.37" departDelay="3.13" arrival="59.20" arrivalLane="-road0_0" arrivalPos="19.96" arrivalPosLat="0.00" arrivalSpeed="12.29" duration="50.40" routeLength="206.37" waitingTime="11.60" waitingCount="1" stopTime="0.00" timeLoss="32.61" rerouteNo="1" devices="tripinfo_vehicle_115 routing_vehicle_115 emissions_vehicle_115 battery_vehicle_115" vType="human" speedFactor="0.92" vaporized="">
        <emissions CO_abs="0" CO2_abs="0" HC_abs="0" PMx_abs="0" NOx_abs="0" fuel_abs="0" electricity_abs="72.291196"/>
    </tripinfo>
    <tripinfo id="vehicle_10" depart="10.80" departLane="road2_0" departPos="4.10" departPosLat="0.00" departSpeed="2.25" departDelay="4.74" arrival="60.80" arrivalLane="-road0_0" arrivalPos="19.96" arrivalPosLat="0.00" arrivalSpeed="12.99" duration="50.00" routeLength="206.37" waitingTime="9.60" waitingCount="1" stopTime="0.00" timeLoss="33.68" rerouteNo="1" devices="tripinfo_vehicle_10 routing_vehicle_10 emissions_vehicle_10 battery_vehicle_10" vType="human" speedFactor="1.09" vaporized="">
        <emissions CO_abs="0" CO2_abs="0" HC_abs="0" PMx_abs="0" NOx_abs="0" fuel_abs="0" electricity_abs="77.938959"/>
    </tripinfo>
    <tripinfo id="vehicle_26" depart="33.60" departLane="road0_0" departPos="4.10" departPosLat="0.00" departSpeed="1.53" departDelay="19.45" arrival="60.80" arrivalLane="-road2_0" arrivalPos="19.96" arrivalPosLat="0.00" arrivalSpeed="11.25" duration="27.20" routeLength="206.37" waitingTime="0.00" waitingCount="0" stopTime="0.00" timeLoss="9.18" rerouteNo="0" devices="tripinfo_vehicle_26 emissions_vehicle_26 battery_vehicle_26" vType="human" speedFactor="0.92" vaporized="">
        <emissions CO_abs="0" CO2_abs="0" HC_abs="0" PMx_abs="0" NOx_abs="0" fuel_abs="0" electricity_abs="70.827708"/>
    </tripinfo>
    <tripinfo id="vehicle_97" depart="43.60" departLane="road0_0" departPos="4.10" departPosLat="0.00" departSpeed="2.58" departDelay="26.14" arrival="60.80" arrivalLane="-road3_0" arrivalPos="19.96" arrivalPosLat="0.00" arrivalSpeed="11.49" duration="17.20" routeLength="122.77" waitingTime="0.00" waitingCount="0" stopTime="0.00" timeLoss="5.83" rerouteNo="0" devices="tripinfo_vehicle_97 emissions_vehicle_97 battery_vehicle_97" vType="human" speedFactor="0.91" vaporized="">
        <emissions CO_abs="0" CO2_abs="0" HC_abs="0" PMx_abs="0" NOx_abs="0" fuel_abs="0" electricity_abs="53.487936"/>
    </tripinfo>
    <tripinfo id="vehicle_77" depart="28.40" departLane="road0_0" departPos="4.10" departPosLat="0.00" departSpeed="3.42" departDelay="17.40" arrival="61.60" arrivalLane="-road1_0" arrivalPos="19.96" arrivalPosLat="0.00" arrivalSpeed="11.41" duration="33.20" routeLength="289.97" waitingTime="0.00" waitingCount="0" stopTime="0.00" timeLoss="10.74" rerouteNo="0" devices="tripinfo_vehicle_77 emissions_vehicle_77 battery_vehicle_77" vType="human" speedFactor="0.98" vaporized="">
        <emissions CO_abs="0" CO2_abs="0" HC_abs="0" PMx_abs="0" NOx_abs="0" fuel_abs="0" electricity_abs="92.588586"/>
    </tripinfo>
    <tripinfo id="vehicle_6" depart="34.00" departLane="road1_0" departPos="4.10" departPosLat="0.00" departSpeed="2.03" departDelay="22.83" arrival="63.20" arrivalLane="-road0_0" arrivalPos="19.96" arrivalPosLat="0.00" arrivalSpeed="12.51" duration="29.20" routeLength="122.77" waitingTime="1.20" waitingCount="1" stopTime="0.00" timeLoss="18.91" rerouteNo="1" devices="tripinfo_vehicle_6 routing_vehicle_6 emissions_vehicle_6 battery_vehicle_6" vType="human" speedFactor="1.05" vaporized="">
        <emissions CO_abs="0" CO2_abs="0" HC_abs="0" PMx_abs="0" NOx_abs="0" fuel_abs="0" electricity_abs="56.503037"/>
    </tripinfo>
    <tripinfo id="vehicle_48" depart="28.00" departLane="road3_0" departPos="4.10" departPosLat="0.00" departSpeed="1.62" departDelay="12.21" arrival="65.20" arrivalLane="-road2_0" arrivalPos="19.96" arrivalPosLat="0.00" arrivalSpeed="11.37" duration="37.20" routeLength="122.77" waitingTime="17.20" waitingCount="1" stopTime="0.00" timeLoss="25.37" rerouteNo="1" devices="tripinfo_vehicle_48 routing_vehicle_48 emissions_vehicle_48 battery_vehicle_48" vType="human" speedFactor="0.88" vaporized="">
        <emissions CO_abs="0" CO2_abs="0" HC_abs="0" PMx_abs="0" NOx_abs="0" fuel_abs="0" electricity_abs="54.801367"/>
    </tripinfo>
    <tripinfo id="vehicle_91" depart="28.40" departLane="road2_0" departPos="4.10" departPosLat="0.00" departSpeed="1.21" departDelay="20.51" arrival="66.00" arrivalLane="-road1_0" arrivalPos="19.96" arrivalPosLat="0.00" arrivalSpeed="11.56" duration="37.60" routeLength="122.77" waitingTime="17.20" waitingCount="2" stopTime="0.00" timeLoss="25.89" rerouteNo="1" devices="tripinfo_vehicle_91 routing_vehicle_91 emissions_vehicle_91 battery_vehicle_91" vType="human" speedFactor="0.89" vaporized="">
        <emissions CO_abs="0" CO2_abs="0" HC_abs="0" PMx_abs="0" NOx_abs="0" fuel_abs="0" electricity_abs="56.994636"/>
    </tripinfo>
    <tripinfo id="vehicle_101" depart="25.60" departLane="road3_0" departPos="4.10" departPosLat="0.00" departSpeed="1.95" departDelay="10.26" arrival="66.00" arrivalLane="-road0_0" arrivalPos="19.96" arrivalPosLat="0.00" arrivalSpeed="11.66" duration="40.40" routeLength="289.97" waitingTime="0.00" waitingCount="0" stopTime="0.00" timeLoss="16.99" rerouteNo="1" devices="tripinfo_vehicle_101 routing_vehicle_101 emissions_vehicle_101 battery_vehicle_101" vType="human" speedFactor="0.96" vaporized="">
        <emissions CO_abs="0" CO2_abs="0" HC_abs="0" PMx_abs="0" NOx_abs="0" fuel_abs="0" electricity_abs="85.565348"/>
    </tripinfo>
    <tripinfo id="vehicle_85" depart="26.40" departLane="road1_0" departPos="4.10" departPosLat="0.00" departSpeed="0.42" departDelay="18.76" arrival="66.40" arrivalLane="-road3_0" arrivalPos="19.96" arrivalPosLat="0.00" arrivalSpeed="12.75" duration="40.00" routeLength="206.37" waitingTime="0.00" waitingCount="0" stopTime="0.00" timeLoss="22.87" rerouteNo="1" devices="tripinfo_vehicle_85 routing_vehicle_85 emissions_vehicle_85 battery_vehicle_85" vType="human" speedFactor="0.98" vaporized="">
        <emissions CO_abs="0" CO2_abs="0" HC_abs="0" PMx_abs="0" NOx_abs="0" fuel_abs="0" electricity_abs="75.432764"/>
    </tripinfo>
    <tripinfo id="vehicle_54" depart="50.00" departLane="road0_0" departPos="4.10" departPosLat="0.00" departSpeed="1.44" departDelay="28.48" arrival="68.00" arrivalLane="-road3_0" arrivalPos="19.96" arrivalPosLat="0.00" arrivalSpeed="12.52" duration="18.00" routeLength="122.77" waitingTime="0.00" waitingCount="0" stopTime="0.00" timeLoss="7.73" rerouteNo="0" devices="tripinfo_vehicle_54 emissions_vehicle_54 battery_vehicle_54" vType="human" speedFactor="1.00" vaporized="">
        <emissions CO_abs="0" CO2_abs="0" HC_abs="0" PMx_abs="0" NOx_abs="0" fuel_abs="0" electricity_abs="60.156880"/>
    </tripinfo>
    <tripinfo id="vehicle_56" depart="33.20" departLane="road2_0" departPos="4.10" departPosLat="0.00" departSpeed="2.08" departDelay="24.57" arrival="70.80" arrivalLane="-road1_0" arrivalPos="19.96" arrivalPosLat="0.00" arrivalSpeed="11.75" duration="37.60" routeLength="122.77" waitingTime="15.20" waitingCount="1" stopTime="0.00" timeLoss="26.12" rerouteNo="1" devices="tripinfo_vehicle_56 routing_vehicle_56 emissions_vehicle_56 battery_vehicle_56" vType="human" speedFactor="0.90" vaporized="">
        <emissions CO_abs="0" CO2_abs="0" HC_abs="0" PMx_abs="0" NOx_abs="0" fuel_abs="0" electricity_abs="55.664919"/>