<?xml version="1.0" encoding="UTF-8"?>

<!-- generated on 2025-01-13 19:50:07 by Eclipse SUMO sumo Version v1_20_0+0085-e155ab8699b
<configuration xmlns:xsi="http://www.w3.org/2001/XMLSchema-instance" xsi:noNamespaceSchemaLocation="http://sumo.dlr.de/xsd/sumoConfiguration.xsd">

    <input>
        <net-file value="networks/roundabout.net.xml"/>
        <route-files value="networks/routes1.rou.xml"/>
    </input>

    <output>
        <output-prefix value="1-"/>
        <battery-output.precision value="4"/>
        <tripinfo-output value="networks/output_data/output_ppo/tripinfo/tripinfo-output.xml"/>
    </output>

    <time>
        <begin value="0"/>
        <step-length value="0.4"/>
    </time>

    <processing>
        <step-method.ballistic value="true"/>
        <lateral-resolution value="3.2"/>
        <collision.action value="warn"/>
        <collision.mingap-factor value="0"/>
        <time-to-teleport value="-1"/>
        <random-depart-offset value="5"/>
    </processing>

    <report>
        <no-warnings value="True"/>
        <no-step-log value="True"/>
    </report>

    <emissions>
        <device.emissions.probability value="1"/>
    </emissions>

    <battery>
        <device.battery.probability value="1"/>
    </battery>

    <traci_server>
        <remote-port value="51171"/>
    </traci_server>

    <gui_only>
        <quit-on-end value="True"/>
        <start value="True"/>
        <delay value="0"/>
    </gui_only>

</configuration>
-->

<tripinfos xmlns:xsi="http://www.w3.org/2001/XMLSchema-instance" xsi:noNamespaceSchemaLocation="http://sumo.dlr.de/xsd/tripinfo_file.xsd">
    <tripinfo id="vehicle_3" depart="3.20" departLane="road3_0" departPos="4.10" departPosLat="0.00" departSpeed="8.04" departDelay="0.00" arrival="17.20" arrivalLane="-road2_0" arrivalPos="19.96" arrivalPosLat="0.00" arrivalSpeed="12.92" duration="14.00" routeLength="122.77" waitingTime="0.00" waitingCount="0" stopTime="0.00" timeLoss="3.60" rerouteNo="1" devices="tripinfo_vehicle_3 routing_vehicle_3 emissions_vehicle_3 battery_vehicle_3" vType="human" speedFactor="1.08" vaporized="">
        <emissions CO_abs="0" CO2_abs="0" HC_abs="0" PMx_abs="0" NOx_abs="0" fuel_abs="0" electricity_abs="53.579298"/>
    </tripinfo>
    <tripinfo id="rl_0" depart="2.00" departLane="road1_0" departPos="4.10" departPosLat="0.00" departSpeed="2.65" departDelay="0.80" arrival="17.60" arrivalLane="-road0_0" arrivalPos="19.96" arrivalPosLat="0.00" arrivalSpeed="12.95" duration="15.60" routeLength="122.77" waitingTime="0.00" waitingCount="0" stopTime="0.00" timeLoss="5.30" rerouteNo="1" devices="tripinfo_rl_0 routing_rl_0 emissions_rl_0 battery_rl_0" vType="rlAnget" speedFactor="1.03" vaporized="">
        <emissions CO_abs="0" CO2_abs="0" HC_abs="0" PMx_abs="0" NOx_abs="0" fuel_abs="0" electricity_abs="67.371274"/>
    </tripinfo>
</tripinfos>
